{"cursor":"27672","size":15,"audio":[],"currentlang":"en","article":"{{Chembox\n| Verifiedfields = changed Watchedfields = changed verifiedrevid = 457117700\n| Reference = . ImageFile = Cellulose Sessel.svg ImageSize = 260px\n| ImageName = Cellulose, a linear polymer of D-glucose units (two are shown)\n| linked by β(1→4)-glycosidic bonds. ImageFile1 = Cellulose-Ibeta-from-xtal-2002-3D-\n| balls.png ImageSize1 = 260px ImageName1 = Three-dimensional structure of\n| cellulose. IUPACName = OtherNames = Section1 = {{Chembox Identifiers CASNo =\n| 9004-34-6 ChEMBL_Ref = ChEMBL = 1201676 CASNo_Ref = EC-number = 232-674-9\n| UNII_Ref = UNII = SMD1X3XO9M RTECS = ChemSpiderID_Ref = ChemSpiderID = NA\n }}\n| Section2 = {{Chembox Properties Formula =\n| (C 6H 10 O5 )n MolarMass = Appearance\n| = white powder Density = 1.5 g/cm 3 Solubility = none MeltingPt =\n| decomposes\n }}\n| Section7 = {{Chembox Hazards NFPA-H = 1 NFPA-F = 1 NFPA-R = 0 ExternalMSDS =\n| EUIndex = not listed Autoignition =\n }}\n| Section8 = {{Chembox Related OtherCpds = Starch\n }} }}\n\n'Cellulose' is an organic compound with the formula , a polysaccharide\nconsisting of a linear chain of several hundred to over ten thousand β(1→4)\nlinked D -glucose units. {{cite book\n|author=Crawford, R. L. |title=Lignin biodegradation and transformation\n|publisher=John Wiley and Sons |location = New York |year=1981 |isbn=0-471-05743-\n6 }} {{cite journal |author=Updegraff DM |title=Semimicro\ndetermination of cellulose in biological materials |journal=Analytical\nBiochemistry |year=1969|volume=32|pages=420–424 |doi=10.1016/S0003-2697(69)80009-\n6 |pmid=5361396 |issue=3 }} Cellulose is an important structural component\nof the primary cell wall of green plants, many forms of algae and the oomycetes.\nSome species of bacteria secrete it to form biofilms. Cellulose is\nthe most abundant organic polymer on Earth. The\ncellulose content of cotton fiber is 90%, that of wood is 40–50% and that of\ndried hemp is approximately 45%. Cellulose. (2008). In [[Encyclopædia\nBritannica]]. Retrieved January 11, 2008, from Encyclopædia Britannica Online. [http://www.ipst.gatech.edu/faculty/ragauskas_art/technical_reviews/C-\nhemical%20Overview%20of%20Wood.pdf Chemical Composition of Wood] [http://www.biocore-europe.org/file/BIOCORE%20Multi-\ncriteria%20evaluation%20of%20niche%20crops.pdf Multi-criteria evaluation of\nlignocellulosic niche crops for use in biorefinery processes]\n\nCellulose is mainly used to produce paperboard and paper. Smaller quantities are\nconverted into a wide variety of derivative products such as cellophane and\nrayon. Conversion of cellulose from energy crops into biofuels such as\ncellulosic ethanol is under investigation as an alternative fuel source.\nCellulose for industrial use is mainly obtained from wood pulp and cotton. \n\nSome animals, particularly ruminants and termites, can digest cellulose with the\nhelp of symbiotic micro-organisms that live in their guts, such as Trichonympha.\nHumans can digest cellulose to some extent, however it\nmainly acts as a hydrophilic bulking agent for feces and is often referred to as\n\"dietary fiber\".\n","linknr":752,"url":"Cellulose","recorded":1374541135,"links":["/w/index.php?title=Cellulose&action=edit","/w/index.php?title=Cellulose&action=edit","//bits.wikimedia.org/favicon/wikipedia.ico","/w/opensearch_desc.php","//en.wikipedia.org/w/api.php?action=rsd","//creativecommons.org/licenses/by-sa/3.0/","/w/index.php?title=Special:RecentChanges&feed=atom","//bits.wikimedia.org/en.wikipedia.org/load.php?debug=false&lang=en&modules=ext.gadget.DRN-wizard%2CReferenceTooltips%2Ccharinsert%2Cteahouse%7Cext.rtlcite%2Cwikihiero%7Cext.uls.nojs%7Cmediawiki.legacy.commonPrint%2Cshared%7Cmw.PopUpMediaTransform%7Cskins.vector&only=styles&skin=vector&*","//bits.wikimedia.org/en.wikipedia.org/load.php?debug=false&lang=en&modules=site&only=styles&skin=vector&*","//bits.wikimedia.org/en.wikipedia.org/load.php?debug=false&lang=en&modules=startup&only=scripts&skin=vector&*","//bits.wikimedia.org/geoiplookup","//meta.wikimedia.org","#mw-navigation","#p-search","#cite_note-1","/wiki/File:Cellulose_Sessel.svg","//upload.wikimedia.org/wikipedia/commons/thumb/0/07/Cellulose_Sessel.svg/260px-Cellulose_Sessel.svg.png","/wiki/File:Cellulose-Ibeta-from-xtal-2002-3D-balls.png","//upload.wikimedia.org/wikipedia/commons/thumb/f/f9/Cellulose-Ibeta-from-xtal-2002-3D-balls.png/260px-Cellulose-Ibeta-from-xtal-2002-3D-balls.png","/wiki/CAS_registry_number","http://www.commonchemistry.org/ChemicalDetail.aspx?ref=9004-34-6","//upload.wikimedia.org/wikipedia/en/thumb/f/fb/Yes_check.svg/7px-Yes_check.svg.png","/wiki/Unique_Ingredient_Identifier","http://fdasis.nlm.nih.gov/srs/srsdirect.jsp?regno=SMD1X3XO9M","//upload.wikimedia.org/wikipedia/en/thumb/f/fb/Yes_check.svg/7px-Yes_check.svg.png","/wiki/EC_number_(chemistry)","http://ecb.jrc.ec.europa.eu/esis/index.php?GENRE=ECNO&ENTREE=232-674-9","/wiki/ChEMBL","https://www.ebi.ac.uk/chembldb/index.php/compound/inspect/CHEMBL1201676","//upload.wikimedia.org/wikipedia/commons/thumb/a/a2/X_mark.svg/7px-X_mark.svg.png","/wiki/Chemical_formula","/wiki/Density","/wiki/Melting_point","/wiki/Solubility","/wiki/Water","/wiki/NFPA_704","/wiki/File:NFPA_704.svg","//upload.wikimedia.org/wikipedia/commons/thumb/6/6f/NFPA_704.svg/75px-NFPA_704.svg.png","/wiki/Starch","//upload.wikimedia.org/wikipedia/commons/thumb/a/a2/X_mark.svg/14px-X_mark.svg.png","//en.wikipedia.org/w/index.php?title=Special:ComparePages&rev1=457117700&page2=Cellulose","/wiki/Wikipedia:WikiProject_Chemicals/Chembox_validation","//upload.wikimedia.org/wikipedia/en/thumb/f/fb/Yes_check.svg/10px-Yes_check.svg.png","//upload.wikimedia.org/wikipedia/commons/thumb/a/a2/X_mark.svg/10px-X_mark.svg.png","/wiki/Standard_state","/wiki/Wikipedia:Chemical_infobox#References","/wiki/Organic_compound","/wiki/Chemical_formula","/wiki/Carbon","/wiki/Hydrogen","/wiki/Oxygen","/wiki/Polysaccharide","/wiki/Glycosidic_bond","/wiki/Glucose","#cite_note-Crawford-2","#cite_note-3","/wiki/Cell_wall","/wiki/Green_plants","/wiki/Algae","/wiki/Oomycete","/wiki/Bacteria","/wiki/Biofilm","#cite_note-4","#cite_note-Klemm-5","/wiki/Cotton","/wiki/Wood","/wiki/Hemp","#cite_note-6","#cite_note-7","#cite_note-8","/wiki/Paperboard","/wiki/Paper","/wiki/Cellophane","/wiki/Rayon","/wiki/Energy_crop","/wiki/Biofuel","/wiki/Cellulosic_ethanol","/wiki/Wood_pulp","/wiki/Cotton","#cite_note-Klemm-5","/wiki/Ruminant","/wiki/Termite","/wiki/Digestion","/wiki/Symbiosis","/wiki/Trichonympha","#cite_note-9","#cite_note-10","/wiki/Hydrophilic","/wiki/Feces","/wiki/Dietary_fiber","#History","#Products","#Cellulose_source_and_energy_crops","#Structure_and_properties","#Assaying_a_cellulose-containing_material","#Biosynthesis","#Breakdown_.28cellulolysis.29","#Hemicellulose","#Derivatives","#References","#External_links","/w/index.php?title=Cellulose&action=edit&section=1","/wiki/Anselme_Payen","#cite_note-Crawford-2","#cite_note-11","#cite_note-Young-12","/wiki/Thermoplastic","/wiki/Celluloid","/wiki/Hermann_Staudinger","/wiki/Enzyme","#cite_note-13","/wiki/File:Plant_cell_wall_diagram.svg","//upload.wikimedia.org/wikipedia/commons/thumb/5/53/Plant_cell_wall_diagram.svg/220px-Plant_cell_wall_diagram.svg.png","/wiki/File:Plant_cell_wall_diagram.svg","//bits.wikimedia.org/static-1.22wmf10/skins/common/images/magnify-clip.png","/w/index.php?title=Cellulose&action=edit&section=2","/wiki/File:Cotton.JPG","//upload.wikimedia.org/wikipedia/commons/thumb/8/8d/Cotton.JPG/220px-Cotton.JPG","/wiki/File:Cotton.JPG","//bits.wikimedia.org/static-1.22wmf10/skins/common/images/magnify-clip.png","/wiki/Cotton","/wiki/Polysaccharide","/wiki/Dissolving_pulp","/wiki/Pulp_(paper)","/wiki/Kraft_process","/wiki/Lignin","/wiki/Paper","/wiki/Paperboard","/wiki/Card_stock","/wiki/Textile","/wiki/Cotton","/wiki/Linen","/wiki/Plant_fiber","/wiki/Cellophane","/wiki/Rayon","/wiki/Cellulose_fiber","/wiki/Dissolving_pulp","/wiki/Viscose","/wiki/Lyocell","/wiki/Nitrocellulose","/wiki/Smokeless_powder","/wiki/Celluloid","/wiki/Adhesives","/wiki/Binder_(material)","/wiki/Methyl_cellulose","/wiki/Carboxymethyl_cellulose","/wiki/Wallpaper_paste","/wiki/Microcrystalline_cellulose","/wiki/E_number","/wiki/Excipient#Fillers_and_diluents","#cite_note-14","/wiki/Kraft_Foods","/wiki/Parmigiano-Reggiano","/wiki/Chromatography","/wiki/Cellulose_fiber","/wiki/Filtration","/wiki/Diatomaceous_earth","/wiki/Hydrophilic","/wiki/Cellulose_insulation","/wiki/Building_insulation","/wiki/Boric_acid","/wiki/Fire_retardant","/wiki/Crystalline","/wiki/Amorphous_solid","/wiki/Nanocellulose","#cite_note-15","/wiki/Nanocrystalline_cellulose","/wiki/Polymer","/wiki/Nanocomposite","#cite_note-16","/w/index.php?title=Cellulose&action=edit&section=3","/wiki/Energy_crop","/wiki/Combustion","/wiki/Energy_crop","/wiki/Lignin","/wiki/Starch","#cite_note-17","/wiki/Hemp","/wiki/Switchgrass","/wiki/Miscanthus","/wiki/Willow","/wiki/Poplar","/wiki/File:Cellulose_strand.jpg","//upload.wikimedia.org/wikipedia/commons/thumb/c/c3/Cellulose_strand.jpg/220px-Cellulose_strand.jpg","/wiki/File:Cellulose_strand.jpg","//bits.wikimedia.org/static-1.22wmf10/skins/common/images/magnify-clip.png","/wiki/Hydrogen_bond","/w/index.php?title=Cellulose&action=edit&section=4","/wiki/Hydrophilic","/wiki/Contact_angle","#cite_note-18","/wiki/Water","/wiki/Solvent","/wiki/Chirality_(chemistry)","/wiki/Biodegradation","/wiki/Glucose","/wiki/Condensation_reaction","/wiki/Glycosidic_bond","/wiki/Starch","/wiki/Glycogen","/wiki/Hydroxyl","/wiki/Hydrogen_bond","/wiki/Tensile_strength","/wiki/Cell_wall","/wiki/File:Cellulose_spacefilling_model.jpg","//upload.wikimedia.org/wikipedia/en/thumb/a/a3/Cellulose_spacefilling_model.jpg/220px-Cellulose_spacefilling_model.jpg","/wiki/File:Cellulose_spacefilling_model.jpg","//bits.wikimedia.org/static-1.22wmf10/skins/common/images/magnify-clip.png","/wiki/Crystallinity","/wiki/Amorphous_solid","/wiki/Pascal_(unit)","#cite_note-Deguchi-19","/wiki/Metastability","#cite_note-20","/wiki/Degree_of_polymerization","#cite_note-Klemm-5","/wiki/Cellodextrin","/wiki/Hemicellulose","/wiki/Lignin","/wiki/Pectin","/wiki/Microbial_cellulose","/w/index.php?title=Cupriethylenediamine&action=edit&redlink=1","/w/index.php?title=Cadmiumethylenediamine&action=edit&redlink=1","/wiki/N-Methylmorpholine_N-oxide","/wiki/Lithium_chloride","/wiki/Dimethylformamide","#cite_note-21","/wiki/Viscose","/wiki/Cellophane","/wiki/Dissolving_pulp","/w/index.php?title=Cellulose&action=edit&section=5","/wiki/Sodium_hydroxide","/wiki/Wikipedia:Please_clarify","/wiki/Wikipedia:Citation_needed","/wiki/Assay","/wiki/Acetic_acid","/wiki/Nitric_acid","/wiki/Xylosan","/wiki/Anthrone","/wiki/Sulfuric_acid","/wiki/Spectrophotometry","/wiki/1_E-9_m","/w/index.php?title=Cellulose&action=edit&section=6","/wiki/Vascular_plant","/wiki/Plasma_membrane","/wiki/Oligomer","/wiki/Nanometre","/wiki/Synthase","#cite_note-22","/wiki/Cell_wall","/wiki/Stoichiometry","#cite_note-23","/wiki/Glucosyltransferase","/wiki/Steroid","/wiki/Beta-sitosterol","/wiki/Glucoside","#cite_note-24","/wiki/Cellulose_synthase_(UDP-forming)","/wiki/Uridine_diphosphate","/wiki/Cellulase","/wiki/Test_(biology)","/wiki/Ascidian","/wiki/Mammal","/wiki/Connective_tissue","#cite_note-25","/w/index.php?title=Cellulose&action=edit&section=7","/wiki/Cellodextrin","/wiki/Hydrolysis","#cite_note-26","/wiki/Ruminant","/wiki/Symbiosis","/wiki/Anaerobic_organism","/wiki/Cellulomonas","/wiki/Enzyme","/wiki/Cellulase","/wiki/Termite","/wiki/Hindgut","/wiki/Flagellate","/wiki/Protozoa","#cite_note-27","/wiki/Fungus","//en.wiktionary.org/wiki/cleave","/wiki/Glycosidic_linkage","/wiki/Glycoside_hydrolase","/wiki/Cellulase","/wiki/Glucosidase","/wiki/Dockerin","/wiki/Carbohydrate-binding_module","#cite_note-Bras-28","/w/index.php?title=Cellulose&action=edit&section=8","/wiki/Hemicellulose","/wiki/Hemicellulose","/wiki/Polysaccharide","/wiki/Glucose","/wiki/Xylose","/wiki/Mannose","/wiki/Galactose","/wiki/Rhamnose","/wiki/Arabinose","/w/index.php?title=Cellulose&action=edit&section=9","/wiki/Hydroxyl","/wiki/Reagent","/wiki/Ester","/wiki/Ether","/wiki/Cellulose_acetate","/wiki/Acetic_acid","/wiki/Acetic_anhydride","/wiki/Cellulose_triacetate","/wiki/Propanoic_acid","/wiki/Butyric_acid","/wiki/Nitrocellulose","/wiki/Nitric_acid","/wiki/Cellulose_sulfate","/wiki/Sulfuric_acid","/wiki/Camphor","/wiki/Celluloid","/wiki/E_number","/wiki/Halogenoalkane","/wiki/Methylcellulose","/wiki/Chloromethane","/wiki/Ethylcellulose","/wiki/Chloroethane","/wiki/Epoxide","/wiki/Hydroxyethyl_cellulose","/wiki/Ethylene_oxide","/wiki/Hydroxypropyl_cellulose","/wiki/Propylene_oxide","/wiki/Hydroxyethyl_methyl_cellulose","/wiki/Hydroxypropyl_methyl_cellulose","/wiki/Ethyl_hydroxyethyl_cellulose","/wiki/Carboxymethyl_cellulose","/wiki/Chloroacetic_acid","/wiki/Sodium","/wiki/Salt_(chemistry)","/wiki/Cross-linked","/wiki/Croscarmellose_sodium","/wiki/Excipient","/w/index.php?title=Cellulose&action=edit&section=10","#cite_ref-1","/wiki/Digital_object_identifier","http://dx.doi.org/10.1021%2Fja0257319","/wiki/PubMed_Identifier","//www.ncbi.nlm.nih.gov/pubmed/12149011","#cite_ref-Crawford_2-0","#cite_ref-Crawford_2-1","/wiki/International_Standard_Book_Number","/wiki/Special:BookSources/0-471-05743-6","#cite_ref-3","/wiki/Digital_object_identifier","http://dx.doi.org/10.1016%2FS0003-2697%2869%2980009-6","/wiki/PubMed_Identifier","//www.ncbi.nlm.nih.gov/pubmed/5361396","#cite_ref-4","/wiki/International_Standard_Book_Number","/wiki/Special:BookSources/978-3-540-75418-3","#cite_ref-Klemm_5-0","#cite_ref-Klemm_5-1","#cite_ref-Klemm_5-2","/wiki/Digital_object_identifier","http://dx.doi.org/10.1002%2Fchin.200536238","#cite_ref-6","/wiki/Encyclop%C3%A6dia_Britannica","#cite_ref-7","http://www.ipst.gatech.edu/faculty/ragauskas_art/technical_reviews/Chemical%20Overview%20of%20Wood.pdf","#cite_ref-8","http://www.biocore-europe.org/file/BIOCORE%20Multi-criteria%20evaluation%20of%20niche%20crops.pdf","#cite_ref-9","/wiki/PubMed_Identifier","//www.ncbi.nlm.nih.gov/pubmed/6257867","#cite_ref-10","/wiki/Digital_object_identifier","http://dx.doi.org/10.1007%2FBF01089198","/wiki/PubMed_Identifier","//www.ncbi.nlm.nih.gov/pubmed/8719737","#cite_ref-11","http://books.google.com/books?id=VDRsFWwgUo4C&pg=PA21&lpg=PA21#v=onepage&q&f=false","#cite_ref-Young_12-0","/wiki/International_Standard_Book_Number","/wiki/Special:BookSources/0-471-82761-4","#cite_ref-13","/wiki/Digital_object_identifier","http://dx.doi.org/10.1002%2Fmasy.19920540138","#cite_ref-14","/wiki/International_Standard_Book_Number","/wiki/Special:BookSources/0-8247-8210-0","#cite_ref-15","http://www.arboranano.ca/pdfs/Chemistry%20and%20applications%20of%20nanocrystalline%20cellulose%20and%20its%20derivatives%20A%20nanotechnology%20perspective-2011.pdf","#cite_ref-16","http://dx.doi.org/10.1021/ma8020213","#cite_ref-17","#cite_ref-18","http://books.google.com/books?id=vP9E3z7o6iIC&pg=PA165","/wiki/International_Standard_Book_Number","/wiki/Special:BookSources/0-8155-1535-9","#cite_ref-Deguchi_19-0","/wiki/Digital_object_identifier","http://dx.doi.org/10.1039%2Fb605812d","#cite_ref-20","http://www.cermav.cnrs.fr/glyco3d/lessons/cellulose/index.html","/wiki/CNRS","#cite_ref-21","/wiki/International_Standard_Book_Number","/wiki/Special:BookSources/952-5216-03-9","#cite_ref-22","http://www.ncbi.nlm.nih.gov/pmc/articles/PMC144118","/wiki/Digital_object_identifier","http://dx.doi.org/10.2307%2F3871010","/wiki/JSTOR","http://www.jstor.org/stable/3871010","/wiki/PubMed_Central","//www.ncbi.nlm.nih.gov/pmc/articles/PMC144118","/wiki/PubMed_Identifier","//www.ncbi.nlm.nih.gov/pubmed/10559435","#cite_ref-23","/wiki/Digital_object_identifier","http://dx.doi.org/10.1073%2Fpnas.0337628100","#cite_ref-24","/wiki/Digital_object_identifier","http://dx.doi.org/10.1126%2Fscience.1064281","/wiki/PubMed_Identifier","//www.ncbi.nlm.nih.gov/pubmed/11778054","#cite_ref-25","http://jcs.biologists.org/content/s3-102/57/107.full.pdf","#cite_ref-26","/wiki/Digital_object_identifier","http://dx.doi.org/10.1036%2F1097-8542.118200","#cite_ref-27","http://rsbl.royalsocietypublishing.org/content/3/3/336.long","/wiki/Digital_object_identifier","http://dx.doi.org/10.1098%2Frsbl.2007.0073","/wiki/PubMed_Central","//www.ncbi.nlm.nih.gov/pmc/articles/PMC2464699","/wiki/PubMed_Identifier","//www.ncbi.nlm.nih.gov/pubmed/17374589","#cite_ref-Bras_28-0","/wiki/Digital_object_identifier","http://dx.doi.org/10.1002%2Fqua.21755","/w/index.php?title=Cellulose&action=edit&section=11","http://www.cermav.cnrs.fr/glyco3d/lessons/cellulose/index.html","/wiki/CNRS","http://www.lsbu.ac.uk/water/hycel.html","/wiki/London_South_Bank_University","http://msa.ars.usda.gov/la/srrc/fb/ca.html","/wiki/United_States_Department_of_Agriculture","http://www.technologyreview.com/read_article.aspx?ch=infotech&sc=&id=17127&pg=1","http://www1.eere.energy.gov/biomass/cellulase_enzyme.html","http://www.wzw.tum.de/mbiotec/cellmo.htm","/wiki/Template:Carbohydrates","/wiki/Template_talk:Carbohydrates","//en.wikipedia.org/w/index.php?title=Template:Carbohydrates&action=edit","/wiki/Carbohydrate","/wiki/Aldose","/wiki/Furanose","/wiki/Ketose","/wiki/Pyranose","/wiki/Anomer","/wiki/Cyclohexane_conformation","/wiki/Mutarotation","/wiki/Monosaccharide","/wiki/Diose","/wiki/Glycolaldehyde","/wiki/Triose","/wiki/Glyceraldehyde","/wiki/Dihydroxyacetone","/wiki/Tetrose","/wiki/Erythrose","/wiki/Threose","/wiki/Erythrulose","/wiki/Pentose","/wiki/Arabinose","/wiki/Lyxose","/wiki/Ribose","/wiki/Xylose","/wiki/Deoxy_sugar","/wiki/Deoxyribose","/wiki/Ribulose","/wiki/Xylulose","/wiki/Hexose","/wiki/Aldohexose","/wiki/Allose","/wiki/Altrose","/wiki/Galactose","/wiki/Glucose","/wiki/Gulose","/wiki/Idose","/wiki/Mannose","/wiki/Talose","/wiki/Deoxy_sugar","/wiki/Fucose","/wiki/Fuculose","/wiki/Rhamnose","/wiki/Ketohexose","/wiki/Fructose","/wiki/Psicose","/wiki/Sorbose","/wiki/Tagatose","/wiki/Heptose","/wiki/Mannoheptulose","/wiki/Sedoheptulose","/wiki/Octose","/wiki/Nonose","/wiki/Neuraminic_acid","/wiki/Disaccharide","/wiki/Cellobiose","/wiki/Lactose","/wiki/Maltose","/wiki/Sucrose","/wiki/Trehalose","/wiki/Turanose","/wiki/Trisaccharide","/wiki/Maltotriose","/wiki/Melezitose","/wiki/Raffinose","/wiki/Tetrasaccharide","/wiki/Stachyose","/wiki/Oligosaccharide","/wiki/Acarbose","/wiki/Fructooligosaccharide","/wiki/Galactooligosaccharide","/wiki/Isomaltooligosaccharide","/wiki/Maltodextrin","/wiki/Mannan_oligosaccharide-based_nutritional_supplements","/wiki/Polysaccharide","/wiki/Beta-glucan","/wiki/Lentinan","/wiki/Sizofiran","/wiki/Zymosan","/wiki/Chitin","/wiki/Dextrin","/wiki/Dextran","/wiki/Fructose","/wiki/Fructan","/wiki/Inulin","/wiki/Galactose","/wiki/Galactose","/wiki/Glucose","/wiki/Glucan","/wiki/Glycogen","/wiki/Levan_polysaccharide","/wiki/Mannan","/wiki/Starch","/wiki/Amylopectin","/wiki/Amylose","/wiki/Biochemistry","/wiki/Template:Metabolism","/wiki/Template:Carbohydrates","/wiki/Template:Alcohols","/wiki/Template:Glycoproteins","/wiki/Template:Glycosides","/wiki/Template:Lipids","/wiki/Template:Eicosanoids","/wiki/Template:Fatty_acids","/wiki/Template:Fatty-acid_metabolism_intermediates","/wiki/Template:Phospholipids","/wiki/Template:Sphingolipids","/wiki/Template:Cholesterol_and_steroid_intermediates","/wiki/Template:Nucleic_acids","/wiki/Template:Nucleobases,_nucleosides,_and_nucleotides","/wiki/Template:Nucleotide_metabolism_intermediates","/wiki/Template:Protein_topics","/wiki/Template:AminoAcids","/wiki/Template:Amino_acid_metabolism_intermediates","/wiki/Template:Tetrapyrroles","/wiki/Template:Heme_metabolism_intermediates","/wiki/Template:Paper","/wiki/Template_talk:Paper","//en.wikipedia.org/w/index.php?title=Template:Paper&action=edit","/wiki/Paper","/wiki/History_of_paper","/wiki/Pulp_(paper)","/wiki/Fiber_crop","/wiki/Papyrus","/wiki/Paper_chemicals","/wiki/Blotting_paper","/wiki/Bond_paper","/wiki/Construction_paper","/wiki/Special_fine_paper#Copy_paper","/wiki/Cotton_paper","/wiki/Cr%C3%AApe_paper","/wiki/Glassine","/wiki/India_paper","/wiki/Kraft_paper","/wiki/Laid_paper","/wiki/Manila_paper","/wiki/Newsprint","/wiki/Onionskin","/wiki/Origami_paper","/wiki/Cotton_paper","/wiki/Rice_paper","/wiki/Security_paper","/wiki/Seed_paper","/wiki/Tar_paper","/wiki/Thermal_paper","/wiki/Tissue_paper","/wiki/Tracing_paper","/wiki/Transfer_paper","/wiki/Tree-free_paper","/wiki/Wallpaper","/wiki/Waterproof_paper","/wiki/Wax_paper","/wiki/Wood-free_paper","/wiki/Wove_paper","/wiki/Paper#Types.2C_thickness_and_weight","/wiki/Paper_size","/wiki/Paper_density","/wiki/Papermaking","/wiki/Paper_engineering","/wiki/Paper_mill","/wiki/Paper_machine","/wiki/Calender","/wiki/Sulfite_process","/wiki/Kraft_process","/wiki/Soda_pulping","/wiki/Paper_recycling","/wiki/List_of_paper_mills","/wiki/Pulp_and_paper_industry_in_Europe","/wiki/Pulp_and_paper_industry_in_the_United_States","/wiki/Pulp_and_paper_industry_in_Japan","/wiki/Bleaching_of_wood_pulp","/wiki/Environmental_impact_of_paper","/wiki/Environmental_impact_of_paper#Issues","//upload.wikimedia.org/wikipedia/en/thumb/4/48/Folder_Hexagonal_Icon.svg/16px-Folder_Hexagonal_Icon.svg.png","/wiki/Category:Paper","//upload.wikimedia.org/wikipedia/en/thumb/4/4a/Commons-logo.svg/12px-Commons-logo.svg.png","//commons.wikimedia.org/wiki/Category:Paper","//en.wikipedia.org/w/index.php?title=Special:CentralAutoLogin/start&type=1x1&from=enwiki","http://en.wikipedia.org/w/index.php?title=Cellulose&oldid=561333864","/wiki/Help:Categories","/wiki/Category:Cellulose","/wiki/Category:Excipients","/wiki/Category:Papermaking","/wiki/Category:Polysaccharides","/wiki/Category:Chemical_compounds_found_in_Ascidiacea","/wiki/Category:Chemical_compounds_which_do_not_have_a_ChemSpiderID","/wiki/Category:Articles_with_changed_EBI_identifier","/wiki/Category:Chemboxes_which_contain_changes_to_verified_fields","/wiki/Category:Chemboxes_which_contain_changes_to_watched_fields","/wiki/Category:Wikipedia_articles_needing_clarification_from_May_2013","/wiki/Category:All_articles_with_unsourced_statements","/wiki/Category:Articles_with_unsourced_statements_from_May_2013","/w/index.php?title=Special:UserLogin&returnto=Cellulose&type=signup","/w/index.php?title=Special:UserLogin&returnto=Cellulose","/wiki/Cellulose","/wiki/Talk:Cellulose","#","/wiki/Cellulose","/w/index.php?title=Cellulose&action=edit","/w/index.php?title=Cellulose&action=history","#","/w/index.php","//bits.wikimedia.org/static-1.22wmf10/skins/vector/images/search-ltr.png?303-4","/wiki/Main_Page","/wiki/Main_Page","/wiki/Portal:Contents","/wiki/Portal:Featured_content","/wiki/Portal:Current_events","/wiki/Special:Random","//donate.wikimedia.org/wiki/Special:FundraiserRedirector?utm_source=donate&utm_medium=sidebar&utm_campaign=C13_en.wikipedia.org&uselang=en","/wiki/Help:Contents","/wiki/Wikipedia:About","/wiki/Wikipedia:Community_portal","/wiki/Special:RecentChanges","//en.wikipedia.org/wiki/Wikipedia:Contact_us","/wiki/Special:WhatLinksHere/Cellulose","/wiki/Special:RecentChangesLinked/Cellulose","/wiki/Wikipedia:File_Upload_Wizard","/wiki/Special:SpecialPages","/w/index.php?title=Cellulose&oldid=561333864","/w/index.php?title=Cellulose&action=info","//www.wikidata.org/wiki/Q80294","/w/index.php?title=Special:Cite&page=Cellulose&id=561333864","/w/index.php?title=Special:Book&bookcmd=book_creator&referer=Cellulose","/w/index.php?title=Special:Book&bookcmd=render_article&arttitle=Cellulose&oldid=561333864&writer=rl","/w/index.php?title=Cellulose&printable=yes","//ar.wikipedia.org/wiki/%D8%B3%D9%84%D9%8A%D9%88%D9%84%D9%88%D8%B2","//az.wikipedia.org/wiki/Sell%C3%BCloza","//be.wikipedia.org/wiki/%D0%A6%D1%8D%D0%BB%D1%8E%D0%BB%D0%BE%D0%B7%D0%B0","//be-x-old.wikipedia.org/wiki/%D0%A6%D1%8D%D0%BB%D1%8E%D0%BB%D1%91%D0%B7%D0%B0","//bg.wikipedia.org/wiki/%D0%A6%D0%B5%D0%BB%D1%83%D0%BB%D0%BE%D0%B7%D0%B0","//bs.wikipedia.org/wiki/Celuloza","//ca.wikipedia.org/wiki/Cel%C2%B7lulosa","//cs.wikipedia.org/wiki/Celul%C3%B3za","//da.wikipedia.org/wiki/Cellulose","//de.wikipedia.org/wiki/Cellulose","//et.wikipedia.org/wiki/Tselluloos","//el.wikipedia.org/wiki/%CE%9A%CF%85%CF%84%CF%84%CE%B1%CF%81%CE%AF%CE%BD%CE%B7","//es.wikipedia.org/wiki/Celulosa","//eo.wikipedia.org/wiki/Celulozo","//eu.wikipedia.org/wiki/Zelulosa","//fa.wikipedia.org/wiki/%D8%B3%D9%84%D9%88%D9%84%D8%B2","//fr.wikipedia.org/wiki/Cellulose","//gl.wikipedia.org/wiki/Celulosa","//ko.wikipedia.org/wiki/%EC%85%80%EB%A3%B0%EB%A1%9C%EC%8A%A4","//hr.wikipedia.org/wiki/Celuloza","//io.wikipedia.org/wiki/Celuloso","//id.wikipedia.org/wiki/Selulosa","//is.wikipedia.org/wiki/Sellul%C3%B3si","//it.wikipedia.org/wiki/Cellulosa","//he.wikipedia.org/wiki/%D7%AA%D7%90%D7%99%D7%AA","//ka.wikipedia.org/wiki/%E1%83%AA%E1%83%94%E1%83%9A%E1%83%A3%E1%83%9A%E1%83%9D%E1%83%96%E1%83%90","//kk.wikipedia.org/wiki/%D0%96%D0%B0%D1%81%D2%B1%D0%BD%D1%8B%D2%9B","//ht.wikipedia.org/wiki/Seliloz","//lv.wikipedia.org/wiki/Celuloze","//lt.wikipedia.org/wiki/Celiulioz%C4%97","//hu.wikipedia.org/wiki/Cellul%C3%B3z","//mk.wikipedia.org/wiki/%D0%A6%D0%B5%D0%BB%D1%83%D0%BB%D0%BE%D0%B7%D0%B0","//ml.wikipedia.org/wiki/%E0%B4%B8%E0%B5%86%E0%B4%B2%E0%B5%8D%E0%B4%B2%E0%B5%81%E0%B4%B2%E0%B5%8B%E0%B4%B8%E0%B5%8D","//mr.wikipedia.org/wiki/%E0%A4%B8%E0%A5%87%E0%A4%B2%E0%A5%8D%E0%A4%AF%E0%A5%81%E0%A4%B2%E0%A5%8B%E0%A4%9C","//xmf.wikipedia.org/wiki/%E1%83%AA%E1%83%94%E1%83%9A%E1%83%A3%E1%83%9A%E1%83%9D%E1%83%96%E1%83%90","//ms.wikipedia.org/wiki/Selulosa","//my.wikipedia.org/wiki/%E1%80%86%E1%80%B2%E1%80%9C%E1%80%BB%E1%80%B0%E1%80%9C%E1%80%AD%E1%80%AF%E1%80%B7","//nl.wikipedia.org/wiki/Cellulose","//ja.wikipedia.org/wiki/%E3%82%BB%E3%83%AB%E3%83%AD%E3%83%BC%E3%82%B9","//no.wikipedia.org/wiki/Cellulose","//nn.wikipedia.org/wiki/Cellulose","//oc.wikipedia.org/wiki/Cellul%C3%B2sa","//pl.wikipedia.org/wiki/Celuloza","//pt.wikipedia.org/wiki/Celulose","//ro.wikipedia.org/wiki/Celuloz%C4%83","//qu.wikipedia.org/wiki/Silulusa","//ru.wikipedia.org/wiki/%D0%A6%D0%B5%D0%BB%D0%BB%D1%8E%D0%BB%D0%BE%D0%B7%D0%B0","//sq.wikipedia.org/wiki/Celuloza","//simple.wikipedia.org/wiki/Cellulose","//sk.wikipedia.org/wiki/Celul%C3%B3za_(organick%C3%A1_l%C3%A1tka)","//sl.wikipedia.org/wiki/Celuloza","//sr.wikipedia.org/wiki/%D0%A6%D0%B5%D0%BB%D1%83%D0%BB%D0%BE%D0%B7%D0%B0","//sh.wikipedia.org/wiki/Celuloza","//su.wikipedia.org/wiki/Selulosa","//fi.wikipedia.org/wiki/Selluloosa","//sv.wikipedia.org/wiki/Cellulosa","//ta.wikipedia.org/wiki/%E0%AE%AE%E0%AE%BE%E0%AE%B5%E0%AE%BF%E0%AE%AF%E0%AE%AE%E0%AF%8D","//th.wikipedia.org/wiki/%E0%B9%80%E0%B8%8B%E0%B8%A5%E0%B8%A5%E0%B8%B9%E0%B9%82%E0%B8%A5%E0%B8%AA","//tr.wikipedia.org/wiki/Sel%C3%BCloz","//uk.wikipedia.org/wiki/%D0%A6%D0%B5%D0%BB%D1%8E%D0%BB%D0%BE%D0%B7%D0%B0","//vi.wikipedia.org/wiki/Cellulose","//zh.wikipedia.org/wiki/%E7%BA%A4%E7%BB%B4%E7%B4%A0","#","//www.wikidata.org/wiki/Q80294#sitelinks-wikipedia","//en.wikipedia.org/wiki/Wikipedia:Text_of_Creative_Commons_Attribution-ShareAlike_3.0_Unported_License","//creativecommons.org/licenses/by-sa/3.0/","//wikimediafoundation.org/wiki/Terms_of_Use","//wikimediafoundation.org/wiki/Privacy_policy","//www.wikimediafoundation.org/","//wikimediafoundation.org/wiki/Privacy_policy","/wiki/Wikipedia:About","/wiki/Wikipedia:General_disclaimer","//en.wikipedia.org/wiki/Wikipedia:Contact_us","//en.m.wikipedia.org/wiki/Cellulose","//wikimediafoundation.org/","//bits.wikimedia.org/images/wikimedia-button.png","//www.mediawiki.org/","//bits.wikimedia.org/static-1.22wmf10/skins/common/images/poweredby_mediawiki_88x31.png","//bits.wikimedia.org/en.wikipedia.org/load.php?debug=false&lang=en&modules=site&only=scripts&skin=vector&*"],"instances":["chemistry","material","biology","unit","chemistry"],"pdf":["http://www.ipst.gatech.edu/faculty/ragauskas_art/technical_reviews/Chemical%20Overview%20of%20Wood.pdf","http://www.biocore-europe.org/file/BIOCORE%20Multi-criteria%20evaluation%20of%20niche%20crops.pdf","http://www.arboranano.ca/pdfs/Chemistry%20and%20applications%20of%20nanocrystalline%20cellulose%20and%20its%20derivatives%20A%20nanotechnology%20perspective-2011.pdf","http://jcs.biologists.org/content/s3-102/57/107.full.pdf"],"categories":["Cellulose|","Excipients","Papermaking","Polysaccharides","Chemical compounds found in Ascidiacea"],"headings":["History","Products","Cellulose source and energy crops","Structure and properties","Assaying a cellulose-containing material","Biosynthesis","Breakdown (cellulolysis)","Hemicellulose","Derivatives","References","External links"],"image":["//upload.wikimedia.org/wikipedia/commons/thumb/0/07/Cellulose_Sessel.svg/260px-Cellulose_Sessel.svg.png","//upload.wikimedia.org/wikipedia/commons/thumb/f/f9/Cellulose-Ibeta-from-xtal-2002-3D-balls.png/260px-Cellulose-Ibeta-from-xtal-2002-3D-balls.png","//upload.wikimedia.org/wikipedia/en/thumb/f/fb/Yes_check.svg/7px-Yes_check.svg.png","//upload.wikimedia.org/wikipedia/en/thumb/f/fb/Yes_check.svg/7px-Yes_check.svg.png","//upload.wikimedia.org/wikipedia/commons/thumb/a/a2/X_mark.svg/7px-X_mark.svg.png","//upload.wikimedia.org/wikipedia/commons/thumb/6/6f/NFPA_704.svg/75px-NFPA_704.svg.png","//upload.wikimedia.org/wikipedia/commons/thumb/a/a2/X_mark.svg/14px-X_mark.svg.png","//upload.wikimedia.org/wikipedia/en/thumb/f/fb/Yes_check.svg/10px-Yes_check.svg.png","//upload.wikimedia.org/wikipedia/commons/thumb/a/a2/X_mark.svg/10px-X_mark.svg.png","//upload.wikimedia.org/wikipedia/commons/thumb/5/53/Plant_cell_wall_diagram.svg/220px-Plant_cell_wall_diagram.svg.png","//bits.wikimedia.org/static-1.22wmf10/skins/common/images/magnify-clip.png","//upload.wikimedia.org/wikipedia/commons/thumb/8/8d/Cotton.JPG/220px-Cotton.JPG","//bits.wikimedia.org/static-1.22wmf10/skins/common/images/magnify-clip.png","//upload.wikimedia.org/wikipedia/commons/thumb/c/c3/Cellulose_strand.jpg/220px-Cellulose_strand.jpg","//bits.wikimedia.org/static-1.22wmf10/skins/common/images/magnify-clip.png","//upload.wikimedia.org/wikipedia/en/thumb/a/a3/Cellulose_spacefilling_model.jpg/220px-Cellulose_spacefilling_model.jpg","//bits.wikimedia.org/static-1.22wmf10/skins/common/images/magnify-clip.png","//upload.wikimedia.org/wikipedia/en/thumb/4/48/Folder_Hexagonal_Icon.svg/16px-Folder_Hexagonal_Icon.svg.png","//upload.wikimedia.org/wikipedia/en/thumb/4/4a/Commons-logo.svg/12px-Commons-logo.svg.png","//en.wikipedia.org/w/index.php?title=Special:CentralAutoLogin/start&type=1x1&from=enwiki","//bits.wikimedia.org/static-1.22wmf10/skins/vector/images/search-ltr.png?303-4","//bits.wikimedia.org/images/wikimedia-button.png","//bits.wikimedia.org/static-1.22wmf10/skins/common/images/poweredby_mediawiki_88x31.png"],"tags":[["binder","material"],["chirality","chemistry"],["pascal","unit"],["cellulose_synthase","udp-forming"],["test","biology"],["salt","chemistry"]],"members":["salt","binder","test","cellulose_synthase","pascal","chirality"],"related":["Starch","Organic_compound","Chemical_formula","Polysaccharide","Glycosidic_bond","Glucose","Cell_wall","Green_plants","Algae","Oomycete","Bacteria","Biofilm","Cotton","Wood","Hemp","Paperboard","Paper","Cellophane","Rayon","Energy_crop","Biofuel","Cellulosic_ethanol","Wood_pulp","Cotton","Ruminant","Termite","Digestion","Symbiosis","Trichonympha","Hydrophilic","Feces","Dietary_fiber","Anselme_Payen","Thermoplastic","Celluloid","Hermann_Staudinger","Enzyme","Polysaccharide","Kraft_process","Lignin","Paper","Paperboard","Card_stock","Textile","Cotton","Linen","Plant_fiber","Cellophane","Rayon","Cellulose_fiber","Dissolving_pulp","Viscose","Lyocell","Nitrocellulose","Smokeless_powder","Celluloid","Adhesives","Binder_(material)","Methyl_cellulose","Carboxymethyl_cellulose","Wallpaper_paste","Microcrystalline_cellulose","E_number","Kraft_Foods","Parmigiano-Reggiano","Chromatography","Cellulose_fiber","Filtration","Diatomaceous_earth","Hydrophilic","Cellulose_insulation","Building_insulation","Boric_acid","Fire_retardant","Crystalline","Amorphous_solid","Nanocellulose","Nanocrystalline_cellulose","Polymer","Nanocomposite","Combustion","Energy_crop","Lignin","Starch","Hemp","Switchgrass","Willow","Poplar","Hydrophilic","Contact_angle","Water","Solvent","Chirality_(chemistry)","Biodegradation","Glucose","Condensation_reaction","Glycosidic_bond","Starch","Glycogen","Hydroxyl","Hydrogen_bond","Tensile_strength","Cell_wall","Crystallinity","Amorphous_solid","Pascal_(unit)","Metastability","CNRS","Degree_of_polymerization","Cellodextrin","Hemicellulose","Lignin","Pectin","Microbial_cellulose","Cupriethylenediamine","Cadmiumethylenediamine","N-Methylmorpholine_N-oxide","Lithium_chloride","Dimethylformamide","Viscose","Cellophane","Dissolving_pulp","Sodium_hydroxide","Assay","Acetic_acid","Nitric_acid","Xylosan","Anthrone","Sulfuric_acid","Spectrophotometry","1_E-9_m","Vascular_plant","Plasma_membrane","Oligomer","Nanometre","Synthase","Cell_wall","Stoichiometry","Glucosyltransferase","Steroid","Beta-sitosterol","Glucoside","Cellulose_synthase_(UDP-forming)","Uridine_diphosphate","Cellulase","Test_(biology)","Ascidian","Mammal","Connective_tissue","Cellodextrin","Hydrolysis","Ruminant","Symbiosis","Anaerobic_organism","Enzyme","Cellulase","Termite","Hindgut","Flagellate","Protozoa","Fungus","Glycosidic_linkage","Glycoside_hydrolase","Cellulase","Glucosidase","Dockerin","Carbohydrate-binding_module","Hemicellulose","Polysaccharide","Glucose","Xylose","Mannose","Galactose","Rhamnose","Arabinose","Hydroxyl","Reagent","Ester","Ether","Cellulose_acetate","Acetic_acid","Acetic_anhydride","Cellulose_triacetate","Propanoic_acid","Butyric_acid","Nitrocellulose","Nitric_acid","Cellulose_sulfate","Sulfuric_acid","Camphor","Celluloid","E_number","Halogenoalkane","Methylcellulose","Chloromethane","Ethylcellulose","Chloroethane","Epoxide","Hydroxyethyl_cellulose","Ethylene_oxide","Hydroxypropyl_cellulose","Propylene_oxide","Hydroxyethyl_methyl_cellulose","Hydroxypropyl_methyl_cellulose","Ethyl_hydroxyethyl_cellulose","Carboxymethyl_cellulose","Chloroacetic_acid","Sodium","Salt_(chemistry)","Cross-linked","Croscarmellose_sodium","Excipient","CNRS","London_South_Bank_University","United_States_Department_of_Agriculture"]}