{"cursor":"9812","size":15,"audio":[],"currentlang":"en","article":"{{chembox\n| Verifiedfields = changed Watchedfields = changed verifiedrevid = 399517420\n| Name = Chlorogenic acid ImageFile = Chlorogenic-acid-from-CAS-2D-skeletal.png\n| ImageSize = 200px ImageName = Chlorogenic acid IUPACName = (1S,3R,4R,5R)-3-{[(2Z)-3-(3,4-dihydroxyphenyl)prop-2-enoyl]oxy}-1,4,5-\n| trihydroxycyclohexanecarboxylic acid OtherNames = 3-(3,4-Dihydroxycinnamoyl)quinate 3-(3,4-\n| Dihydroxycinnamoyl)quinic acid 3-Caffeoylquinate 3-Caffeoylquinic acid 3-CQA 3-O-\n| Caffeoylquinic acid Chlorogenate Chlorogenic acid Heriguard 3-trans-\n| Caffeoylquinic acid Section1 = {{Chembox Identifiers ChEBI_Ref = ChEBI = 16112\n| SMILES = O=C(O)[C@]2(O)C[C@@H](O)[C@@H](O)[C@H](OC(=O)\\C=C\\c1ccc(O)c(O)c1)C2\n| RTECS = GU8480000 ChEMBL_Ref = ChEMBL = 284616 ChemSpiderID_Ref = ChemSpiderID\n| = 1405788 InChI = 1/C16H18O9/c17-9-3-1-8(5-10(9)18)2-4-13(20)25-12-7-16(24,15(22)23)6-\n| 11(19)14(12)21/h1-5,11-12,14,17-19,21,24H,6-7H2,(H,22,23)/b4-2+/t11-,12-,14-\n| ,16+/m1/s1 InChIKey = CWVRJTMFETXNAD-JUHZACGLBD StdInChI_Ref = StdInChI = 1S/C16H18O9/c17-9-3-1-8(5-10(9)18)2-4-13(20)25-12-7-16(24,15(22)23)6-\n| 11(19)14(12)21/h1-5,11-12,14,17-19,21,24H,6-7H2,(H,22,23)/b4-2+/t11-,12-,14-\n| ,16+/m1/s1 StdInChIKey_Ref = StdInChIKey = CWVRJTMFETXNAD-JUHZACGLSA-N\n| CASNo_Ref = CASNo = 327-97-9 PubChem = 1794427\n  }}\n| Section2 = {{Chembox Properties C=16|H=18|O=9 ExactMass = 354.095082 u Density\n| = 1.28 g/cm 3 MeltingPtCL = 207 MeltingPtCH = 209 BoilingPt =\n  }}\n| Section7 = {{Chembox Hazards ExternalMSDS =\n| [https://fscimage.fishersci.com/msds/09255.htm External MSDS] NFPA-H = 1 NFPA-\n| F = 0 NFPA-R = RPhrases = - SPhrases =\n}} }} The term 'chlorogenic acids' refers to a family of esters of\nhydroxycinnamic acids (caffeic acid, ferulic acid and ''p''-coumaric acid) with\nquinic acid. {{cite journal |last1=Clifford |first1=M. N.\n|last2=Johnston |first2=K. L. |last3=Knigh |first3=S. |last4=Kuhnert |first4=N.\n|title=Hierarchical Scheme for LC-MS n Identification of Chlorogenic\nAcids |journal= J. Agric. Food Chem. |volume=51 |issue=10 |pages=2900–2911\n|year=2003 |doi=10.1021/jf026187q |pmid=12720369 }}\n\nThe term 'chlorogenic acid' (CGA) can also be used specifically for an ester of\ncaffeic acid and (-)-quinic acid. It is an important biosynthetic\nintermediate. Chlorogenic acid is an important intermediate in lignin\nbiosynthesis. This compound, long known as an antioxidant, also slows the\nrelease of glucose into the bloodstream after a meal. {{cite journal\n  | last1 = Johnston | first1 = K. L. last2 = Clifford | first2 = M. N. last3 =\n  | Morgan | first3 = L. M. title = Coffee acutely modifies gastrointestinal\n  | hormone secretion and glucose tolerance in humans: glycemic effects of\n  | chlorogenic acid and caffeine journal = Am. J. Clin. Nutrit. volume = 78\n  | issue = 4 pages = 728–733 year = 2003 month = October url =\n  | http://www.ajcn.org/cgi/content/full/78/4/728 pmid = 14522730\n  }}\n\nChlorogenic acids contain no chlorine. The name comes from the Greek χλωρός\n(light green) and -γένος (a suffix meaning \"giving rise to\"), because of\nthe green color produced when chlorogenic acids are oxidized.\n","linknr":279,"url":"Chlorogenic_acid","recorded":1364125145,"links":["/w/index.php?title=Chlorogenic_acid&action=edit","/w/index.php?title=Chlorogenic_acid&action=edit","//en.wikipedia.org/apple-touch-icon.png","//bits.wikimedia.org/favicon/wikipedia.ico","/w/opensearch_desc.php","//en.wikipedia.org/w/api.php?action=rsd","//creativecommons.org/licenses/by-sa/3.0/","/w/index.php?title=Special:RecentChanges&feed=atom","//bits.wikimedia.org/en.wikipedia.org/load.php?debug=false&lang=en&modules=ext.gadget.DRN-wizard%2CReferenceTooltips%2Ccharinsert%2Cteahouse%7Cext.wikihiero%7Cmediawiki.legacy.commonPrint%2Cshared%7Cmw.PopUpMediaTransform%7Cskins.vector&only=styles&skin=vector&*","//bits.wikimedia.org/en.wikipedia.org/load.php?debug=false&lang=en&modules=site&only=styles&skin=vector&*","//bits.wikimedia.org/en.wikipedia.org/load.php?debug=false&lang=en&modules=startup&only=scripts&skin=vector&*","//bits.wikimedia.org/geoiplookup","//meta.wikimedia.org","#mw-head","#p-search","/wiki/File:Chlorogenic-acid-from-CAS-2D-skeletal.png","//upload.wikimedia.org/wikipedia/commons/thumb/1/1b/Chlorogenic-acid-from-CAS-2D-skeletal.png/200px-Chlorogenic-acid-from-CAS-2D-skeletal.png","/wiki/International_Union_of_Pure_and_Applied_Chemistry_nomenclature","/wiki/CAS_registry_number","http://www.commonchemistry.org/ChemicalDetail.aspx?ref=327-97-9","//upload.wikimedia.org/wikipedia/en/thumb/f/fb/Yes_check.svg/7px-Yes_check.svg.png","/wiki/PubChem","http://pubchem.ncbi.nlm.nih.gov/summary/summary.cgi?cid=1794427","/wiki/ChemSpider","http://www.chemspider.com/1405788","//upload.wikimedia.org/wikipedia/en/thumb/f/fb/Yes_check.svg/7px-Yes_check.svg.png","/wiki/ChEBI","https://www.ebi.ac.uk/chebi/searchId.do?chebiId=16112","//upload.wikimedia.org/wikipedia/commons/thumb/a/a2/X_mark.svg/7px-X_mark.svg.png","/wiki/ChEMBL","https://www.ebi.ac.uk/chembldb/index.php/compound/inspect/CHEMBL284616","//upload.wikimedia.org/wikipedia/commons/thumb/a/a2/X_mark.svg/7px-X_mark.svg.png","/wiki/RTECS","/wiki/Jmol","http://chemapps.stolaf.edu/jmol/jmol.php?model=O%3DC%28O%29%5BC%40%5D2%28O%29C%5BC%40%40H%5D%28O%29%5BC%40%40H%5D%28O%29%5BC%40H%5D%28OC%28%3DO%29%5CC%3DC%5Cc1ccc%28O%29c%28O%29c1%29C2","/wiki/Simplified_molecular-input_line-entry_system","/wiki/International_Chemical_Identifier","//upload.wikimedia.org/wikipedia/en/thumb/f/fb/Yes_check.svg/7px-Yes_check.svg.png","//upload.wikimedia.org/wikipedia/en/thumb/f/fb/Yes_check.svg/7px-Yes_check.svg.png","/wiki/Molecular_formula","/wiki/Molar_mass","/wiki/Density","/wiki/Melting_point","/wiki/MSDS","https://fscimage.fishersci.com/msds/09255.htm","/wiki/List_of_R-phrases","/wiki/List_of_S-phrases","/wiki/S24:_Avoid_contact_with_skin","/wiki/S25:_Avoid_contact_with_eyes","/wiki/S28:_After_contact_with_skin,_wash_immediately_with_plenty_of_..._(to_be_specified_by_the_manufacturer)","/wiki/S37:_Wear_suitable_gloves","/wiki/S45:_In_case_of_accident_or_if_you_feel_unwell_seek_medical_advice_immediately_(show_the_label_where_possible)","/wiki/NFPA_704","/wiki/File:NFPA_704.svg","//upload.wikimedia.org/wikipedia/commons/thumb/6/6f/NFPA_704.svg/75px-NFPA_704.svg.png","//upload.wikimedia.org/wikipedia/commons/thumb/a/a2/X_mark.svg/14px-X_mark.svg.png","//en.wikipedia.org/w/index.php?title=Special:ComparePages&rev1=399517420&page2=Chlorogenic+acid","/wiki/Wikipedia:WikiProject_Chemicals/Chembox_validation","//upload.wikimedia.org/wikipedia/en/thumb/f/fb/Yes_check.svg/10px-Yes_check.svg.png","//upload.wikimedia.org/wikipedia/commons/thumb/a/a2/X_mark.svg/10px-X_mark.svg.png","/wiki/Standard_state","/wiki/Wikipedia:Chemical_infobox#References","/wiki/Hydroxycinnamic_acid","/wiki/Caffeic_acid","/wiki/Ferulic_acid","/wiki/P-coumaric_acid","/wiki/Quinic_acid","#cite_note-hierarchical-1","/wiki/Caffeic_acid","/wiki/Quinic_acid","#cite_note-2","/wiki/Lignin_biosynthesis","/wiki/Antioxidant","/wiki/Glucose","/wiki/Bloodstream","#cite_note-3","#Chemical_properties","#Natural_occurrences","#Food_additive","#Biological_effects","#References","/w/index.php?title=Chlorogenic_acid&action=edit&section=1","/wiki/Ester","/wiki/Caffeic_acid","/wiki/Quinic_acid","#cite_note-4","/w/index.php?title=4-O-Caffeoylquinic_acid&action=edit&redlink=1","/wiki/Neochlorogenic_acid","/wiki/Epimer","#cite_note-hierarchical-1","/w/index.php?title=3,4-dicaffeoylquinic_acid&action=edit&redlink=1","/w/index.php?title=3,5-dicaffeoylquinic_acid&action=edit&redlink=1","#cite_note-5","/wiki/File:Chlorogenic_acid_UV_vis_spectrum.png","//upload.wikimedia.org/wikipedia/commons/thumb/9/9e/Chlorogenic_acid_UV_vis_spectrum.png/220px-Chlorogenic_acid_UV_vis_spectrum.png","/wiki/File:Chlorogenic_acid_UV_vis_spectrum.png","//bits.wikimedia.org/static-1.21wmf11/skins/common/images/magnify-clip.png","/w/index.php?title=Chlorogenic_acid&action=edit&section=2","#cite_note-6","/wiki/Phyllostachys_edulis","#cite_note-7","#cite_note-8","/wiki/Peach","#cite_note-9","/wiki/Prune","#cite_note-Stacewicz-Sapuntzakis-10","/wiki/Natural_phenol","/wiki/Coffee","/wiki/Calluna_vulgaris","#cite_note-11","/w/index.php?title=Chlorogenic_acid&action=edit&section=3","/w/index.php?title=Chlorogenic_acid&action=edit&section=4","#cite_note-12","/wiki/Laxative","/wiki/Prune","#cite_note-Stacewicz-Sapuntzakis-10","/w/index.php?title=Chlorogenic_acid&action=edit&section=5","#cite_ref-hierarchical_1-0","#cite_ref-hierarchical_1-1","/wiki/Journal_of_Agricultural_and_Food_Chemistry","/wiki/Digital_object_identifier","http://dx.doi.org/10.1021%2Fjf026187q","/wiki/PubMed_Identifier","//www.ncbi.nlm.nih.gov/pubmed/12720369","#cite_ref-2","/wiki/Annual_Review_of_Plant_Biology","/wiki/Digital_object_identifier","http://dx.doi.org/10.1146%2Fannurev.arplant.54.031902.134938","/wiki/PubMed_Identifier","//www.ncbi.nlm.nih.gov/pubmed/14503002","#cite_ref-3","http://www.ajcn.org/cgi/content/full/78/4/728","/wiki/The_American_Journal_of_Clinical_Nutrition","/wiki/PubMed_Identifier","//www.ncbi.nlm.nih.gov/pubmed/14522730","#cite_ref-4","/wiki/Journal_of_the_Science_of_Food_and_Agriculture","/wiki/Digital_object_identifier","http://dx.doi.org/10.1002%2F%28SICI%291097-0010%2819990301%2979%3A3%3C362%3A%3AAID-JSFA256%3E3.0.CO%3B2-D","#cite_ref-5","/wiki/Phytochemistry_(journal)","/wiki/Digital_object_identifier","http://dx.doi.org/10.1016%2FS0031-9422%2800%2986209-3","#cite_ref-6","/wiki/Journal_of_Agricultural_and_Food_Chemistry","/wiki/Digital_object_identifier","http://dx.doi.org/10.1021%2Fjf960900s","#cite_ref-7","/wiki/Journal_of_Agricultural_and_Food_Chemistry","/wiki/Digital_object_identifier","http://dx.doi.org/10.1021%2Fjf010514x","#cite_ref-8","/wiki/International_Standard_Book_Number","/wiki/Special:BookSources/0-85404-580-5","#cite_ref-9","http://journal.ashspublications.org/content/120/5/835.full.pdf","/w/index.php?title=Journal_of_the_American_Society_for_Horticultural_Science&action=edit&redlink=1","#cite_ref-Stacewicz-Sapuntzakis_10-0","#cite_ref-Stacewicz-Sapuntzakis_10-1","/w/index.php?title=Critical_Reviews_in_Food_Science_and_Nutrition&action=edit&redlink=1","/wiki/Digital_object_identifier","http://dx.doi.org/10.1080%2F20014091091814","/wiki/PubMed_Identifier","//www.ncbi.nlm.nih.gov/pubmed/11401245","#cite_ref-11","/wiki/Phytochemistry_(journal)","/wiki/Digital_object_identifier","http://dx.doi.org/10.1016%2F0031-9422%2882%2980150-7","#cite_ref-12","/wiki/The_Journal_of_Allergy_and_Clinical_Immunology","/wiki/Digital_object_identifier","http://dx.doi.org/10.1016%2F0021-8707%2864%2990023-1","/wiki/Template:Hydroxycinnamic_acid","/wiki/Template_talk:Hydroxycinnamic_acid","//en.wikipedia.org/w/index.php?title=Template:Hydroxycinnamic_acid&action=edit","/wiki/Hydroxycinnamic_acid","/wiki/Cinnamic_acid","/wiki/P-Coumaric_acid","/wiki/O-Coumaric_acid","/wiki/M-Coumaric_acid","/wiki/Dihydroxycinnamic_acid","/wiki/Caffeic_acid","/wiki/Umbellic_acid","/wiki/2,3-Dihydroxycinnamic_acid","/wiki/2,5-Dihydroxycinnamic_acid","/wiki/3,5-Dihydroxycinnamic_acid","/w/index.php?title=3,4,6-Trihydroxycinnamic_acid&action=edit&redlink=1","/wiki/Ferulic_acid","/wiki/5-Hydroxyferulic_acid","/wiki/Sinapinic_acid","/wiki/Plicatin_A","/wiki/Plicatin_B","/w/index.php?title=Dactylifric_acid&action=edit&redlink=1","/w/index.php?title=3-O-caffeoylshikimic_acid&action=edit&redlink=1","/wiki/Neochlorogenic_acid","/wiki/Cynarine","/w/index.php?title=Ferulic_acid_glucoside&action=edit&redlink=1","/wiki/P-Coumaric_acid_glucoside","/w/index.php?title=1-Sinapoyl-D-glucose&action=edit&redlink=1","/wiki/Caftaric_acid","/wiki/Cichoric_acid","/wiki/Coutaric_acid","/wiki/Fertaric_acid","/wiki/Ethyl_caffeate","/wiki/Methyl_caffeate","/wiki/Caffeic_acid_phenethyl_ester","/wiki/Cinnamoyl-CoA","/wiki/Coumaroyl-CoA","/wiki/Grape_reaction_product","/wiki/Diferulic_acids","http://en.wikipedia.org/w/index.php?title=Chlorogenic_acid&oldid=544118060","/wiki/Help:Categories","/wiki/Category:Hydroxycinnamic_acids","/wiki/Category:Carboxylate_esters","/wiki/Category:Carboxylic_acids","/wiki/Category:Catechols","/wiki/Category:Articles_with_changed_EBI_identifier","/wiki/Category:Chemboxes_which_contain_changes_to_verified_fields","/wiki/Category:Chemboxes_which_contain_changes_to_watched_fields","/w/index.php?title=Special:UserLogin&returnto=Chlorogenic+acid&type=signup","/w/index.php?title=Special:UserLogin&returnto=Chlorogenic+acid","/wiki/Chlorogenic_acid","/wiki/Talk:Chlorogenic_acid","#","/wiki/Chlorogenic_acid","/w/index.php?title=Chlorogenic_acid&action=edit","/w/index.php?title=Chlorogenic_acid&action=history","#","/w/index.php","//bits.wikimedia.org/static-1.21wmf11/skins/vector/images/search-ltr.png?303-4","/wiki/Main_Page","/wiki/Main_Page","/wiki/Portal:Contents","/wiki/Portal:Featured_content","/wiki/Portal:Current_events","/wiki/Special:Random","//donate.wikimedia.org/wiki/Special:FundraiserRedirector?utm_source=donate&utm_medium=sidebar&utm_campaign=C13_en.wikipedia.org&uselang=en","/wiki/Help:Contents","/wiki/Wikipedia:About","/wiki/Wikipedia:Community_portal","/wiki/Special:RecentChanges","/wiki/Wikipedia:Contact_us","/wiki/Special:WhatLinksHere/Chlorogenic_acid","/wiki/Special:RecentChangesLinked/Chlorogenic_acid","/wiki/Wikipedia:File_Upload_Wizard","/wiki/Special:SpecialPages","/w/index.php?title=Chlorogenic_acid&oldid=544118060","/w/index.php?title=Chlorogenic_acid&action=info","/w/index.php?title=Special:Cite&page=Chlorogenic_acid&id=544118060","/w/index.php?title=Special:Book&bookcmd=book_creator&referer=Chlorogenic+acid","/w/index.php?title=Special:Book&bookcmd=render_article&arttitle=Chlorogenic+acid&oldid=544118060&writer=rl","/w/index.php?title=Chlorogenic_acid&printable=yes","//bg.wikipedia.org/wiki/%D0%A5%D0%BB%D0%BE%D1%80%D0%BE%D0%B3%D0%B5%D0%BD%D0%BD%D0%B0_%D0%BA%D0%B8%D1%81%D0%B5%D0%BB%D0%B8%D0%BD%D0%B0","//ca.wikipedia.org/wiki/%C3%80cid_clorog%C3%A8nic","//da.wikipedia.org/wiki/Klorogensyre","//de.wikipedia.org/wiki/Chlorogens%C3%A4ure","//fr.wikipedia.org/wiki/Acide_chlorog%C3%A9nique","//id.wikipedia.org/wiki/Asam_klorogenat","//it.wikipedia.org/wiki/Acido_clorogenico","//jv.wikipedia.org/wiki/Asam_klorogenat","//nl.wikipedia.org/wiki/Chlorogeenzuur","//ja.wikipedia.org/wiki/%E3%82%AF%E3%83%AD%E3%83%AD%E3%82%B2%E3%83%B3%E9%85%B8","//pl.wikipedia.org/wiki/Kwas_chlorogenowy","//www.wikidata.org/wiki/Special:ItemByTitle/enwiki/Chlorogenic acid","//en.wikipedia.org/wiki/Wikipedia:Text_of_Creative_Commons_Attribution-ShareAlike_3.0_Unported_License","//creativecommons.org/licenses/by-sa/3.0/","//wikimediafoundation.org/wiki/Terms_of_Use","//www.wikimediafoundation.org/","//en.wikipedia.org/wiki/Wikipedia:Contact_us","//wikimediafoundation.org/wiki/Privacy_policy","/wiki/Wikipedia:About","/wiki/Wikipedia:General_disclaimer","http://en.m.wikipedia.org/wiki/Chlorogenic_acid","//wikimediafoundation.org/","//bits.wikimedia.org/images/wikimedia-button.png","//www.mediawiki.org/","//bits.wikimedia.org/static-1.21wmf11/skins/common/images/poweredby_mediawiki_88x31.png","//bits.wikimedia.org/en.wikipedia.org/load.php?debug=false&lang=en&modules=skins.vector&only=scripts&skin=vector&*","/w/index.php?title=MediaWiki:Gadget-ReferenceTooltips.js&action=raw&ctype=text/javascript&508635914","//bits.wikimedia.org/en.wikipedia.org/load.php?debug=false&lang=en&modules=site&only=scripts&skin=vector&*"],"instances":["journal"],"pdf":["http://journal.ashspublications.org/content/120/5/835.full.pdf"],"categories":["Hydroxycinnamic acids","Carboxylate esters","Carboxylic acids","Catechols"],"headings":["Chemical properties","Natural occurrences","Food additive","Biological effects","References"],"image":["//upload.wikimedia.org/wikipedia/commons/thumb/1/1b/Chlorogenic-acid-from-CAS-2D-skeletal.png/200px-Chlorogenic-acid-from-CAS-2D-skeletal.png","//upload.wikimedia.org/wikipedia/en/thumb/f/fb/Yes_check.svg/7px-Yes_check.svg.png","//upload.wikimedia.org/wikipedia/en/thumb/f/fb/Yes_check.svg/7px-Yes_check.svg.png","//upload.wikimedia.org/wikipedia/commons/thumb/a/a2/X_mark.svg/7px-X_mark.svg.png","//upload.wikimedia.org/wikipedia/commons/thumb/a/a2/X_mark.svg/7px-X_mark.svg.png","//upload.wikimedia.org/wikipedia/en/thumb/f/fb/Yes_check.svg/7px-Yes_check.svg.png","//upload.wikimedia.org/wikipedia/en/thumb/f/fb/Yes_check.svg/7px-Yes_check.svg.png","//upload.wikimedia.org/wikipedia/commons/thumb/6/6f/NFPA_704.svg/75px-NFPA_704.svg.png","//upload.wikimedia.org/wikipedia/commons/thumb/a/a2/X_mark.svg/14px-X_mark.svg.png","//upload.wikimedia.org/wikipedia/en/thumb/f/fb/Yes_check.svg/10px-Yes_check.svg.png","//upload.wikimedia.org/wikipedia/commons/thumb/a/a2/X_mark.svg/10px-X_mark.svg.png","//upload.wikimedia.org/wikipedia/commons/thumb/9/9e/Chlorogenic_acid_UV_vis_spectrum.png/220px-Chlorogenic_acid_UV_vis_spectrum.png","//bits.wikimedia.org/static-1.21wmf11/skins/common/images/magnify-clip.png","//bits.wikimedia.org/static-1.21wmf11/skins/vector/images/search-ltr.png?303-4","//bits.wikimedia.org/images/wikimedia-button.png","//bits.wikimedia.org/static-1.21wmf11/skins/common/images/poweredby_mediawiki_88x31.png"],"tags":[["phytochemistry","journal"]],"members":["phytochemistry"],"related":["Hydroxycinnamic_acid","Caffeic_acid","Ferulic_acid","P-coumaric_acid","Quinic_acid","Journal_of_Agricultural_and_Food_Chemistry","Caffeic_acid","Quinic_acid","Lignin_biosynthesis","Antioxidant","Glucose","Bloodstream","The_American_Journal_of_Clinical_Nutrition","Ester","Caffeic_acid","Quinic_acid","Journal_of_the_Science_of_Food_and_Agriculture","4-O-Caffeoylquinic_acid","Neochlorogenic_acid","Epimer","3,4-dicaffeoylquinic_acid","3,5-dicaffeoylquinic_acid","Phytochemistry_(journal)","Journal_of_Agricultural_and_Food_Chemistry","Peach","Journal_of_the_American_Society_for_Horticultural_Science","Prune","Natural_phenol","Coffee","Laxative","Prune"]}