{"cursor":"2118","size":15,"audio":[],"currentlang":"en","article":"\n{{Chembox\n| verifiedrevid = 401973876 Name = Cyclopentene ImageFileL1 = Cyclopentene-2D-\n| skeletal.png ImageSizeL1 = 100px ImageNameL1 = Cyclopentene ImageFileR1 = Cyclopentene-3D-\n| balls.png ImageSizeR1 = 100px ImageNameR1 = Ball-and-stick model of\n| cyclopentene ImageFile2 = Cyclopentene-3D-vdW.png ImageSize2 = 120px\n| ImageName2 = Space-filling model of cyclopentene IUPACName = Cyclopentene\n| Section1 = {{Chembox Identifiers ChemSpiderID_Ref = ChemSpiderID = 8544\n| PubChem = 8882 ChEMBL = 1797299 InChI = 1/C5H8/c1-2-4-5-3-1/h1-2H,3-5H2\n| InChIKey = LPIQUOYDBNQMRZ-UHFFFAOYAS StdInChI_Ref = StdInChI = 1S/C5H8/c1-2-4-5-3-1/h1-2H,3-\n| 5H2 StdInChIKey_Ref = StdInChIKey = LPIQUOYDBNQMRZ-UHFFFAOYSA-N CASNo_Ref =\n| CASNo = 142-29-0 ChEBI = 49155 SMILES = C1CC=CC1\n}}\n| Section2 = {{Chembox Properties Formula = C 5H 8 MolarMass\n| = 68.11 g/mol Density = 0.771 g/cm 3 MeltingPt = -135 °C BoilingPt =\n| 44-46 °C\n  }}\n| Section7 = {{Chembox Hazards FlashPt = -29 °C NFPA-H = 1 NFPA-F = 3 | NFPA-R=1\n| NFPA-R =\n  }}\n| Section8 = {{Chembox Related OtherCpds = Cyclopentadiene Cyclobutene\n  }} }}\n\n'Cyclopentene' is a chemical compound with the formula\n5 8. It is a colorless liquid with a petrol-like\nodor. It is one of the cycloalkenes.\n\nCyclopentene is produced industrially in large amounts. It is used as a monomer\nfor synthesis of plastics, and in a number of chemical syntheses.\n\nIt can be obtained from vinylcyclopropane in the vinylcyclopropane-cyclopentene\nrearrangement.\n","linknr":174,"url":"Cyclopentene","recorded":1374761643,"links":["/w/index.php?title=Cyclopentene&action=edit","/w/index.php?title=Cyclopentene&action=edit","//bits.wikimedia.org/favicon/wikipedia.ico","/w/opensearch_desc.php","//en.wikipedia.org/w/api.php?action=rsd","//creativecommons.org/licenses/by-sa/3.0/","/w/index.php?title=Special:RecentChanges&feed=atom","//bits.wikimedia.org/en.wikipedia.org/load.php?debug=false&lang=en&modules=ext.gadget.DRN-wizard%2CReferenceTooltips%2Ccharinsert%2Cteahouse%7Cext.rtlcite%2Cwikihiero%7Cext.uls.nojs%7Cmediawiki.legacy.commonPrint%2Cshared%7Cmw.PopUpMediaTransform%7Cskins.vector&only=styles&skin=vector&*","//bits.wikimedia.org/en.wikipedia.org/load.php?debug=false&lang=en&modules=site&only=styles&skin=vector&*","//bits.wikimedia.org/en.wikipedia.org/load.php?debug=false&lang=en&modules=startup&only=scripts&skin=vector&*","//bits.wikimedia.org/geoiplookup","//meta.wikimedia.org","#mw-navigation","#p-search","//upload.wikimedia.org/wikipedia/en/thumb/9/99/Question_book-new.svg/50px-Question_book-new.svg.png","//en.wikipedia.org/w/index.php?title=Cyclopentene&action=edit","/wiki/Help:Introduction_to_referencing/1","/wiki/Template:Citation_needed","/wiki/Wikipedia:Verifiability#Burden_of_evidence","/wiki/File:Cyclopentene-2D-skeletal.png","//upload.wikimedia.org/wikipedia/commons/thumb/4/47/Cyclopentene-2D-skeletal.png/100px-Cyclopentene-2D-skeletal.png","/wiki/File:Cyclopentene-3D-balls.png","//upload.wikimedia.org/wikipedia/commons/thumb/3/33/Cyclopentene-3D-balls.png/100px-Cyclopentene-3D-balls.png","/wiki/File:Cyclopentene-3D-vdW.png","//upload.wikimedia.org/wikipedia/commons/thumb/8/85/Cyclopentene-3D-vdW.png/120px-Cyclopentene-3D-vdW.png","/wiki/International_Union_of_Pure_and_Applied_Chemistry_nomenclature","/wiki/CAS_registry_number","http://www.commonchemistry.org/ChemicalDetail.aspx?ref=142-29-0","//upload.wikimedia.org/wikipedia/en/thumb/f/fb/Yes_check.svg/7px-Yes_check.svg.png","/wiki/PubChem","http://pubchem.ncbi.nlm.nih.gov/summary/summary.cgi?cid=8882","/wiki/ChemSpider","http://www.chemspider.com/8544","//upload.wikimedia.org/wikipedia/en/thumb/f/fb/Yes_check.svg/7px-Yes_check.svg.png","/wiki/ChEBI","https://www.ebi.ac.uk/chebi/searchId.do?chebiId=49155","/wiki/ChEMBL","https://www.ebi.ac.uk/chembldb/index.php/compound/inspect/CHEMBL1797299","/wiki/Jmol","http://chemapps.stolaf.edu/jmol/jmol.php?model=C1CC%3DCC1","/wiki/Simplified_molecular-input_line-entry_system","/wiki/International_Chemical_Identifier","//upload.wikimedia.org/wikipedia/en/thumb/f/fb/Yes_check.svg/7px-Yes_check.svg.png","//upload.wikimedia.org/wikipedia/en/thumb/f/fb/Yes_check.svg/7px-Yes_check.svg.png","/wiki/Chemical_formula","/wiki/Molar_mass","/wiki/Density","/wiki/Melting_point","/wiki/Boiling_point","/wiki/NFPA_704","/wiki/File:NFPA_704.svg","//upload.wikimedia.org/wikipedia/commons/thumb/6/6f/NFPA_704.svg/75px-NFPA_704.svg.png","/wiki/Flash_point","/wiki/Cyclopentadiene","/wiki/Cyclobutene","//upload.wikimedia.org/wikipedia/en/thumb/f/fb/Yes_check.svg/14px-Yes_check.svg.png","//en.wikipedia.org/w/index.php?title=Special:ComparePages&rev1=401973876&page2=Cyclopentene","/wiki/Wikipedia:WikiProject_Chemicals/Chembox_validation","//upload.wikimedia.org/wikipedia/en/thumb/f/fb/Yes_check.svg/10px-Yes_check.svg.png","//upload.wikimedia.org/wikipedia/commons/thumb/a/a2/X_mark.svg/10px-X_mark.svg.png","/wiki/Standard_state","/wiki/Wikipedia:Chemical_infobox#References","/wiki/Chemical_compound","/wiki/Carbon","/wiki/Hydrogen","#cite_note-1","/wiki/Liquid","/wiki/Petrol","/wiki/Odor","/wiki/Cycloalkene","/wiki/Monomer","/wiki/Plastic","/wiki/Vinylcyclopropane-cyclopentene_rearrangement","/w/index.php?title=Cyclopentene&action=edit&section=1","#cite_ref-1","http://www.wolframalpha.com/entities/chemicals/cyclopentene/3p/9j/ct/","/wiki/Template:Cycloalkenes","/w/index.php?title=Template_talk:Cycloalkenes&action=edit&redlink=1","//en.wikipedia.org/w/index.php?title=Template:Cycloalkenes&action=edit","/wiki/Cycloalkene","/wiki/Alkene","/wiki/Cyclopropene","/wiki/Cyclobutene","/wiki/Cyclohexene","/wiki/Cycloheptene","/wiki/Cyclooctene","/wiki/Diene","/wiki/Cyclobutadiene","/wiki/Cyclopentadiene","/wiki/1,3-Cyclohexadiene","/wiki/1,4-Cyclohexadiene","/w/index.php?title=Cycloheptadiene&action=edit&redlink=1","/wiki/Cyclooctadiene","/wiki/1,5-Cyclooctadiene","/wiki/Triene","/wiki/Benzene","/wiki/File:Hexane-3D-space-filling.png","//upload.wikimedia.org/wikipedia/commons/thumb/1/15/Hexane-3D-space-filling.png/40px-Hexane-3D-space-filling.png","/wiki/Hydrocarbon","/wiki/Wikipedia:Stub","//en.wikipedia.org/w/index.php?title=Cyclopentene&action=edit","/wiki/Template:Hydrocarbon-stub","/wiki/Template_talk:Hydrocarbon-stub","//en.wikipedia.org/w/index.php?title=Template:Hydrocarbon-stub&action=edit","//en.wikipedia.org/w/index.php?title=Special:CentralAutoLogin/start&type=1x1&from=enwiki","http://en.wikipedia.org/w/index.php?title=Cyclopentene&oldid=544109495","/wiki/Help:Categories","/wiki/Category:Hydrocarbon_stubs","/wiki/Category:Cycloalkenes","/wiki/Category:Monomers","/wiki/Category:Articles_needing_additional_references_from_June_2012","/wiki/Category:All_articles_needing_additional_references","/w/index.php?title=Special:UserLogin&returnto=Cyclopentene&type=signup","/w/index.php?title=Special:UserLogin&returnto=Cyclopentene","/wiki/Cyclopentene","/wiki/Talk:Cyclopentene","#","/wiki/Cyclopentene","/w/index.php?title=Cyclopentene&action=edit","/w/index.php?title=Cyclopentene&action=history","#","/w/index.php","//bits.wikimedia.org/static-1.22wmf10/skins/vector/images/search-ltr.png?303-4","/wiki/Main_Page","/wiki/Main_Page","/wiki/Portal:Contents","/wiki/Portal:Featured_content","/wiki/Portal:Current_events","/wiki/Special:Random","//donate.wikimedia.org/wiki/Special:FundraiserRedirector?utm_source=donate&utm_medium=sidebar&utm_campaign=C13_en.wikipedia.org&uselang=en","/wiki/Help:Contents","/wiki/Wikipedia:About","/wiki/Wikipedia:Community_portal","/wiki/Special:RecentChanges","//en.wikipedia.org/wiki/Wikipedia:Contact_us","/wiki/Special:WhatLinksHere/Cyclopentene","/wiki/Special:RecentChangesLinked/Cyclopentene","/wiki/Wikipedia:File_Upload_Wizard","/wiki/Special:SpecialPages","/w/index.php?title=Cyclopentene&oldid=544109495","/w/index.php?title=Cyclopentene&action=info","//www.wikidata.org/wiki/Q415233","/w/index.php?title=Special:Cite&page=Cyclopentene&id=544109495","/w/index.php?title=Special:Book&bookcmd=book_creator&referer=Cyclopentene","/w/index.php?title=Special:Book&bookcmd=render_article&arttitle=Cyclopentene&oldid=544109495&writer=rl","/w/index.php?title=Cyclopentene&printable=yes","//ar.wikipedia.org/wiki/%D8%A8%D9%8A%D9%86%D8%AA%D9%8A%D9%86_%D8%AD%D9%84%D9%82%D9%8A","//de.wikipedia.org/wiki/Cyclopenten","//fa.wikipedia.org/wiki/%D8%B3%DB%8C%DA%A9%D9%84%D9%88_%D9%BE%D9%86%D8%AA%D9%86","//fr.wikipedia.org/wiki/Cyclopent%C3%A8ne","//it.wikipedia.org/wiki/Ciclopentene","//hu.wikipedia.org/wiki/Ciklopent%C3%A9n","//nl.wikipedia.org/wiki/Cyclopenteen","//ja.wikipedia.org/wiki/%E3%82%B7%E3%82%AF%E3%83%AD%E3%83%9A%E3%83%B3%E3%83%86%E3%83%B3","//pt.wikipedia.org/wiki/Ciclopenteno","//sr.wikipedia.org/wiki/Ciklopenten","//vi.wikipedia.org/wiki/Cyclopenten","//zh.wikipedia.org/wiki/%E7%8E%AF%E6%88%8A%E7%83%AF","#","//www.wikidata.org/wiki/Q415233#sitelinks-wikipedia","//en.wikipedia.org/wiki/Wikipedia:Text_of_Creative_Commons_Attribution-ShareAlike_3.0_Unported_License","//creativecommons.org/licenses/by-sa/3.0/","//wikimediafoundation.org/wiki/Terms_of_Use","//wikimediafoundation.org/wiki/Privacy_policy","//www.wikimediafoundation.org/","//wikimediafoundation.org/wiki/Privacy_policy","/wiki/Wikipedia:About","/wiki/Wikipedia:General_disclaimer","//en.wikipedia.org/wiki/Wikipedia:Contact_us","//en.m.wikipedia.org/wiki/Cyclopentene","//wikimediafoundation.org/","//bits.wikimedia.org/images/wikimedia-button.png","//www.mediawiki.org/","//bits.wikimedia.org/static-1.22wmf10/skins/common/images/poweredby_mediawiki_88x31.png","//bits.wikimedia.org/en.wikipedia.org/load.php?debug=false&lang=en&modules=site&only=scripts&skin=vector&*"],"instances":[],"pdf":[],"categories":["Cycloalkenes","Monomers"],"headings":["References"],"image":["//upload.wikimedia.org/wikipedia/en/thumb/9/99/Question_book-new.svg/50px-Question_book-new.svg.png","//upload.wikimedia.org/wikipedia/commons/thumb/4/47/Cyclopentene-2D-skeletal.png/100px-Cyclopentene-2D-skeletal.png","//upload.wikimedia.org/wikipedia/commons/thumb/3/33/Cyclopentene-3D-balls.png/100px-Cyclopentene-3D-balls.png","//upload.wikimedia.org/wikipedia/commons/thumb/8/85/Cyclopentene-3D-vdW.png/120px-Cyclopentene-3D-vdW.png","//upload.wikimedia.org/wikipedia/en/thumb/f/fb/Yes_check.svg/7px-Yes_check.svg.png","//upload.wikimedia.org/wikipedia/en/thumb/f/fb/Yes_check.svg/7px-Yes_check.svg.png","//upload.wikimedia.org/wikipedia/en/thumb/f/fb/Yes_check.svg/7px-Yes_check.svg.png","//upload.wikimedia.org/wikipedia/en/thumb/f/fb/Yes_check.svg/7px-Yes_check.svg.png","//upload.wikimedia.org/wikipedia/commons/thumb/6/6f/NFPA_704.svg/75px-NFPA_704.svg.png","//upload.wikimedia.org/wikipedia/en/thumb/f/fb/Yes_check.svg/14px-Yes_check.svg.png","//upload.wikimedia.org/wikipedia/en/thumb/f/fb/Yes_check.svg/10px-Yes_check.svg.png","//upload.wikimedia.org/wikipedia/commons/thumb/a/a2/X_mark.svg/10px-X_mark.svg.png","//upload.wikimedia.org/wikipedia/commons/thumb/1/15/Hexane-3D-space-filling.png/40px-Hexane-3D-space-filling.png","//en.wikipedia.org/w/index.php?title=Special:CentralAutoLogin/start&type=1x1&from=enwiki","//bits.wikimedia.org/static-1.22wmf10/skins/vector/images/search-ltr.png?303-4","//bits.wikimedia.org/images/wikimedia-button.png","//bits.wikimedia.org/static-1.22wmf10/skins/common/images/poweredby_mediawiki_88x31.png"],"tags":[],"members":[],"related":["Cyclopentadiene","Cyclobutene","Chemical_compound","Liquid","Petrol","Odor","Cycloalkene","Monomer","Plastic","Vinylcyclopropane-cyclopentene_rearrangement"]}