{"cursor":"3007","size":15,"audio":[],"currentlang":"en","article":"{{chembox\n| verifiedrevid = 412509081 Reference= [[Merck Index]], 11th Edition,\n| '2748'. [http://www.inchem.org/documents/icsc/icsc/eics0427.htm\n| Cyclopentanone] at inchem.org Name = Cyclopentanone ImageFile =\n| Cyclopentanone.png ImageSize = 80px ImageName = Cyclopentanone IUPACName =\n| cyclopentanone OtherNames = ketocyclopentane adipic ketone Section1 =\n| {{Chembox Identifiers UNII = 220W81TN3S ChEBI = 16486 SMILES = C1CCC(=O)C1\n| ChemSpiderID_Ref = ChemSpiderID = 8141 PubChem = 8452 KEGG_Ref = KEGG = C00557\n| InChI = 1/C5H8O/c6-5-3-1-2-4-5/h1-4H2 InChIKey = BGTOWKSIORTVQH-UHFFFAOYAP\n| ChEMBL_Ref = ChEMBL = 18620 StdInChI_Ref = StdInChI = 1S/C5H8O/c6-5-3-1-2-4-5/h1-\n| 4H2 StdInChIKey_Ref = StdInChIKey = BGTOWKSIORTVQH-UHFFFAOYSA-N CASNo_Ref =\n| CASNo = 120-92-3 RTECS = GY4725000\n  }}\n| Section2 = {{Chembox Properties Formula = C 5H 8O\n| MolarMass = 84.12 g/mol Appearance = clear, colorless liquid Density = 0.95\n| g/cm 3, liquid Solubility = Slightly soluble MeltingPtC = -58.2\n| BoilingPtC = 130.6 Viscosity =\n  }}\n| Section3 = {{Chembox Structure Dipole =\n  }}\n| Section7 = {{Chembox Hazards ExternalMSDS =\n| [http://siri.org/msds/mf/cards/file/0427.html Cyclopentanone] MainHazards =\n| FlashPt = 26 °C RPhrases = SPhrases =\n  }}\n| Section8 = {{Chembox Related Function = ketones OtherFunctn = cyclohexanone 2-pentanone 3-pentanone OtherCpds = cyclopropane\n  }} }}\n\n'Cyclopentanone' is an organic compound with the formula\n(CH 2) 4CO. It is a colorless liquid with a peppermint-like\nodor. It is a cyclic ketone, structurally similar to cyclopentane, consisting of\na five-membered ring containing a ketone functional group.\n","linknr":155,"url":"Cyclopentanone","recorded":1374544910,"links":["/w/index.php?title=Cyclopentanone&action=edit","/w/index.php?title=Cyclopentanone&action=edit","//bits.wikimedia.org/favicon/wikipedia.ico","/w/opensearch_desc.php","//en.wikipedia.org/w/api.php?action=rsd","//creativecommons.org/licenses/by-sa/3.0/","/w/index.php?title=Special:RecentChanges&feed=atom","//bits.wikimedia.org/en.wikipedia.org/load.php?debug=false&lang=en&modules=ext.gadget.DRN-wizard%2CReferenceTooltips%2Ccharinsert%2Cteahouse%7Cext.rtlcite%2Cwikihiero%7Cext.uls.nojs%7Cmediawiki.legacy.commonPrint%2Cshared%7Cmw.PopUpMediaTransform%7Cskins.vector&only=styles&skin=vector&*","//bits.wikimedia.org/en.wikipedia.org/load.php?debug=false&lang=en&modules=site&only=styles&skin=vector&*","//bits.wikimedia.org/en.wikipedia.org/load.php?debug=false&lang=en&modules=startup&only=scripts&skin=vector&*","//bits.wikimedia.org/geoiplookup","//meta.wikimedia.org","#mw-navigation","#p-search","#cite_note-1","#cite_note-2","/wiki/File:Cyclopentanone.png","//upload.wikimedia.org/wikipedia/commons/thumb/c/c8/Cyclopentanone.png/80px-Cyclopentanone.png","/wiki/International_Union_of_Pure_and_Applied_Chemistry_nomenclature","/wiki/CAS_registry_number","http://www.commonchemistry.org/ChemicalDetail.aspx?ref=120-92-3","//upload.wikimedia.org/wikipedia/en/thumb/f/fb/Yes_check.svg/7px-Yes_check.svg.png","/wiki/PubChem","http://pubchem.ncbi.nlm.nih.gov/summary/summary.cgi?cid=8452","/wiki/ChemSpider","http://www.chemspider.com/8141","//upload.wikimedia.org/wikipedia/en/thumb/f/fb/Yes_check.svg/7px-Yes_check.svg.png","/wiki/Unique_Ingredient_Identifier","http://fdasis.nlm.nih.gov/srs/srsdirect.jsp?regno=220W81TN3S","/wiki/KEGG","http://www.kegg.jp/entry/C00557","//upload.wikimedia.org/wikipedia/en/thumb/f/fb/Yes_check.svg/7px-Yes_check.svg.png","/wiki/ChEBI","https://www.ebi.ac.uk/chebi/searchId.do?chebiId=16486","/wiki/ChEMBL","https://www.ebi.ac.uk/chembldb/index.php/compound/inspect/CHEMBL18620","//upload.wikimedia.org/wikipedia/en/thumb/f/fb/Yes_check.svg/7px-Yes_check.svg.png","/wiki/RTECS","/wiki/Jmol","http://chemapps.stolaf.edu/jmol/jmol.php?model=C1CCC%28%3DO%29C1","/wiki/Simplified_molecular-input_line-entry_system","/wiki/International_Chemical_Identifier","//upload.wikimedia.org/wikipedia/en/thumb/f/fb/Yes_check.svg/7px-Yes_check.svg.png","//upload.wikimedia.org/wikipedia/en/thumb/f/fb/Yes_check.svg/7px-Yes_check.svg.png","/wiki/Chemical_formula","/wiki/Molar_mass","/wiki/Density","/wiki/Melting_point","/wiki/Boiling_point","/wiki/Solubility","/wiki/Water","/wiki/MSDS","http://siri.org/msds/mf/cards/file/0427.html","/wiki/Flash_point","/wiki/Ketone","/wiki/Cyclohexanone","/wiki/2-Pentanone","/wiki/3-pentanone","/wiki/Cyclopropane","//upload.wikimedia.org/wikipedia/en/thumb/f/fb/Yes_check.svg/14px-Yes_check.svg.png","//en.wikipedia.org/w/index.php?title=Special:ComparePages&rev1=412509081&page2=Cyclopentanone","/wiki/Wikipedia:WikiProject_Chemicals/Chembox_validation","//upload.wikimedia.org/wikipedia/en/thumb/f/fb/Yes_check.svg/10px-Yes_check.svg.png","//upload.wikimedia.org/wikipedia/commons/thumb/a/a2/X_mark.svg/10px-X_mark.svg.png","/wiki/Standard_state","/wiki/Wikipedia:Chemical_infobox#References","/wiki/Organic_compound","/wiki/Ketone","/wiki/Cyclopentane","/wiki/Ketone","/w/index.php?title=Cyclopentanone&action=edit&section=1","/wiki/Barium_hydroxide","/wiki/Adipic_acid","/wiki/Ketonization","#cite_note-3","/wiki/Cyclopentobarbital","/wiki/Jasmone","#cite_note-Ullmann-4","/w/index.php?title=Cyclopentanone&action=edit&section=2","#cite_ref-1","/wiki/Merck_Index","#cite_ref-2","http://www.inchem.org/documents/icsc/icsc/eics0427.htm","#cite_ref-3","http://www.orgsyn.org/orgsyn/orgsyn/prepContent.asp?prep=CV1P0192","/wiki/Organic_Syntheses","#cite_ref-Ullmann_4-0","/wiki/Digital_object_identifier","http://dx.doi.org/10.1002%2F14356007.a15_077","/w/index.php?title=Cyclopentanone&action=edit&section=3","http://ptcl.chem.ox.ac.uk/MSDS/CY/cyclopentanone.html","//en.wikipedia.org/w/index.php?title=Special:CentralAutoLogin/start&type=1x1&from=enwiki","http://en.wikipedia.org/w/index.php?title=Cyclopentanone&oldid=540412546","/wiki/Help:Categories","/wiki/Category:Ketones","/w/index.php?title=Special:UserLogin&returnto=Cyclopentanone&type=signup","/w/index.php?title=Special:UserLogin&returnto=Cyclopentanone","/wiki/Cyclopentanone","/wiki/Talk:Cyclopentanone","#","/wiki/Cyclopentanone","/w/index.php?title=Cyclopentanone&action=edit","/w/index.php?title=Cyclopentanone&action=history","#","/w/index.php","//bits.wikimedia.org/static-1.22wmf10/skins/vector/images/search-ltr.png?303-4","/wiki/Main_Page","/wiki/Main_Page","/wiki/Portal:Contents","/wiki/Portal:Featured_content","/wiki/Portal:Current_events","/wiki/Special:Random","//donate.wikimedia.org/wiki/Special:FundraiserRedirector?utm_source=donate&utm_medium=sidebar&utm_campaign=C13_en.wikipedia.org&uselang=en","/wiki/Help:Contents","/wiki/Wikipedia:About","/wiki/Wikipedia:Community_portal","/wiki/Special:RecentChanges","//en.wikipedia.org/wiki/Wikipedia:Contact_us","/wiki/Special:WhatLinksHere/Cyclopentanone","/wiki/Special:RecentChangesLinked/Cyclopentanone","/wiki/Wikipedia:File_Upload_Wizard","/wiki/Special:SpecialPages","/w/index.php?title=Cyclopentanone&oldid=540412546","/w/index.php?title=Cyclopentanone&action=info","//www.wikidata.org/wiki/Q416065","/w/index.php?title=Special:Cite&page=Cyclopentanone&id=540412546","/w/index.php?title=Special:Book&bookcmd=book_creator&referer=Cyclopentanone","/w/index.php?title=Special:Book&bookcmd=render_article&arttitle=Cyclopentanone&oldid=540412546&writer=rl","/w/index.php?title=Cyclopentanone&printable=yes","//de.wikipedia.org/wiki/Cyclopentanon","//es.wikipedia.org/wiki/Ciclopentanona","//fa.wikipedia.org/wiki/%D8%B3%DB%8C%DA%A9%D9%84%D9%88%D9%BE%D9%86%D8%AA%D8%A7%D9%86%D9%88%D9%86","//fr.wikipedia.org/wiki/Cyclopentanone","//hu.wikipedia.org/wiki/Ciklopentanon","//nl.wikipedia.org/wiki/Cyclopentanon","//pl.wikipedia.org/wiki/Cyklopentanon","//pt.wikipedia.org/wiki/Ciclopentanona","//ru.wikipedia.org/wiki/%D0%A6%D0%B8%D0%BA%D0%BB%D0%BE%D0%BF%D0%B5%D0%BD%D1%82%D0%B0%D0%BD%D0%BE%D0%BD","//zh.wikipedia.org/wiki/%E7%8E%AF%E6%88%8A%E9%85%AE","#","//www.wikidata.org/wiki/Q416065#sitelinks-wikipedia","//en.wikipedia.org/wiki/Wikipedia:Text_of_Creative_Commons_Attribution-ShareAlike_3.0_Unported_License","//creativecommons.org/licenses/by-sa/3.0/","//wikimediafoundation.org/wiki/Terms_of_Use","//wikimediafoundation.org/wiki/Privacy_policy","//www.wikimediafoundation.org/","//wikimediafoundation.org/wiki/Privacy_policy","/wiki/Wikipedia:About","/wiki/Wikipedia:General_disclaimer","//en.wikipedia.org/wiki/Wikipedia:Contact_us","//en.m.wikipedia.org/wiki/Cyclopentanone","//wikimediafoundation.org/","//bits.wikimedia.org/images/wikimedia-button.png","//www.mediawiki.org/","//bits.wikimedia.org/static-1.22wmf10/skins/common/images/poweredby_mediawiki_88x31.png","//bits.wikimedia.org/en.wikipedia.org/load.php?debug=false&lang=en&modules=site&only=scripts&skin=vector&*"],"instances":[],"pdf":[],"categories":["Ketones"],"headings":["Preparation and use","References","External links"],"image":["//upload.wikimedia.org/wikipedia/commons/thumb/c/c8/Cyclopentanone.png/80px-Cyclopentanone.png","//upload.wikimedia.org/wikipedia/en/thumb/f/fb/Yes_check.svg/7px-Yes_check.svg.png","//upload.wikimedia.org/wikipedia/en/thumb/f/fb/Yes_check.svg/7px-Yes_check.svg.png","//upload.wikimedia.org/wikipedia/en/thumb/f/fb/Yes_check.svg/7px-Yes_check.svg.png","//upload.wikimedia.org/wikipedia/en/thumb/f/fb/Yes_check.svg/7px-Yes_check.svg.png","//upload.wikimedia.org/wikipedia/en/thumb/f/fb/Yes_check.svg/7px-Yes_check.svg.png","//upload.wikimedia.org/wikipedia/en/thumb/f/fb/Yes_check.svg/7px-Yes_check.svg.png","//upload.wikimedia.org/wikipedia/en/thumb/f/fb/Yes_check.svg/14px-Yes_check.svg.png","//upload.wikimedia.org/wikipedia/en/thumb/f/fb/Yes_check.svg/10px-Yes_check.svg.png","//upload.wikimedia.org/wikipedia/commons/thumb/a/a2/X_mark.svg/10px-X_mark.svg.png","//en.wikipedia.org/w/index.php?title=Special:CentralAutoLogin/start&type=1x1&from=enwiki","//bits.wikimedia.org/static-1.22wmf10/skins/vector/images/search-ltr.png?303-4","//bits.wikimedia.org/images/wikimedia-button.png","//bits.wikimedia.org/static-1.22wmf10/skins/common/images/poweredby_mediawiki_88x31.png"],"tags":[],"members":[],"related":["Ketone","Cyclohexanone","2-Pentanone","3-pentanone","Cyclopropane","Organic_compound","Ketone","Cyclopentane","Ketone","Barium_hydroxide","Adipic_acid","Ketonization","Cyclopentobarbital","Jasmone"]}