{"cursor":"4322","size":15,"audio":[],"currentlang":"en","article":"\n\n{{chembox\n| verifiedrevid = 456494006 Name = (E)-Stilbene ImageFile =\n| Stilbene_trans_structure.svg ImageSize = 150px ImageName = trans-stilbene -\n| skeletal formula ImageFile1 = Trans-stilbene-from-xtal-3D-balls.png ImageSize1\n| = 200px ImageName1 = trans-stilbene - ball-and-stick model IUPACName = (E)-1,2-\n| Diphenylethene OtherNames = (E)-Stilbene, trans-Stilbene, trans-1,2-\n| Diphenylethylene Section1 = {{Chembox Identifiers InChIKey = PJANXHGTPQOBST-\n| VAWYXSNFBV InChI = 1/C14H12/c1-3-7-13(8-4-1)11-12-14-9-5-2-6-10-14/h1-12H/b12-\n| 11+ ChEMBL_Ref = ChEMBL = 113028 PubChem = 638088 StdInChI_Ref = StdInChI =\n| 1S/C14H12/c1-3-7-13(8-4-1)11-12-14-9-5-2-6-10-14/h1-12H/b12-11+\n| StdInChIKey_Ref = StdInChIKey = PJANXHGTPQOBST-VAWYXSNFSA-N CASNo_Ref = CASNo\n| = 103-30-0 SMILES = c2(\\C=C\\c1ccccc1)ccccc2 SMILES1 = c1ccc(cc1)/C=C/c2ccccc2\n| ChemSpiderID_Ref = ChEBI_Ref = ChEBI = 36007 ChemSpiderID = 553649\n  }}\n| Section2 = {{Chembox Properties C=14 | H=12 Appearance = Solid Density =\n| 0.9707 g/cm 3 Solubility = Practically insoluble MeltingPt = 122-125\n| °C BoilingPt = 305-307 °C\n  }}\n| Section7 = {{Chembox Hazards FlashPt = >112 °C ExternalMSDS = External MSDS\n| NFPA-H = 1 | NFPA-F = 1 | NFPA-R = 0 }}\n}}\n\n'(E)-Stilbene', is a diarylethene, i.e., a hydrocarbon consisting of a trans\nethene double bond substituted with a phenyl group on both carbon atoms of the\ndouble bond. The name stilbene is derived from the Greek word stilbos, which\nmeans shining.\n","linknr":173,"url":"(E)-Stilbene","recorded":1374862950,"links":["/w/index.php?title=(E)-Stilbene&action=edit","/w/index.php?title=(E)-Stilbene&action=edit","//bits.wikimedia.org/favicon/wikipedia.ico","/w/opensearch_desc.php","//en.wikipedia.org/w/api.php?action=rsd","//creativecommons.org/licenses/by-sa/3.0/","/w/index.php?title=Special:RecentChanges&feed=atom","//bits.wikimedia.org/en.wikipedia.org/load.php?debug=false&lang=en&modules=ext.gadget.DRN-wizard%2CReferenceTooltips%2Ccharinsert%2Cteahouse%7Cext.rtlcite%2Cwikihiero%7Cext.uls.nojs%7Cmediawiki.legacy.commonPrint%2Cshared%7Cmw.PopUpMediaTransform%7Cskins.vector&only=styles&skin=vector&*","//bits.wikimedia.org/en.wikipedia.org/load.php?debug=false&lang=en&modules=site&only=styles&skin=vector&*","//bits.wikimedia.org/en.wikipedia.org/load.php?debug=false&lang=en&modules=startup&only=scripts&skin=vector&*","//bits.wikimedia.org/geoiplookup","//meta.wikimedia.org","#mw-navigation","#p-search","/wiki/Antioxidant","/wiki/Stilbenoid","/wiki/File:Stilbene_trans_structure.svg","//upload.wikimedia.org/wikipedia/commons/thumb/2/2d/Stilbene_trans_structure.svg/150px-Stilbene_trans_structure.svg.png","/wiki/File:Trans-stilbene-from-xtal-3D-balls.png","//upload.wikimedia.org/wikipedia/commons/thumb/d/dd/Trans-stilbene-from-xtal-3D-balls.png/200px-Trans-stilbene-from-xtal-3D-balls.png","/wiki/International_Union_of_Pure_and_Applied_Chemistry_nomenclature","/wiki/CAS_registry_number","http://www.commonchemistry.org/ChemicalDetail.aspx?ref=103-30-0","//upload.wikimedia.org/wikipedia/en/thumb/f/fb/Yes_check.svg/7px-Yes_check.svg.png","/wiki/PubChem","http://pubchem.ncbi.nlm.nih.gov/summary/summary.cgi?cid=638088","/wiki/ChemSpider","http://www.chemspider.com/553649","//upload.wikimedia.org/wikipedia/en/thumb/f/fb/Yes_check.svg/7px-Yes_check.svg.png","/wiki/ChEBI","https://www.ebi.ac.uk/chebi/searchId.do?chebiId=36007","//upload.wikimedia.org/wikipedia/en/thumb/f/fb/Yes_check.svg/7px-Yes_check.svg.png","/wiki/ChEMBL","https://www.ebi.ac.uk/chembldb/index.php/compound/inspect/CHEMBL113028","//upload.wikimedia.org/wikipedia/en/thumb/f/fb/Yes_check.svg/7px-Yes_check.svg.png","/wiki/Jmol","http://chemapps.stolaf.edu/jmol/jmol.php?model=c2%28%5CC%3DC%5Cc1ccccc1%29ccccc2","http://chemapps.stolaf.edu/jmol/jmol.php?model=c1ccc%28cc1%29%2FC%3DC%2Fc2ccccc2","/wiki/Simplified_molecular-input_line-entry_system","/wiki/International_Chemical_Identifier","//upload.wikimedia.org/wikipedia/en/thumb/f/fb/Yes_check.svg/7px-Yes_check.svg.png","//upload.wikimedia.org/wikipedia/en/thumb/f/fb/Yes_check.svg/7px-Yes_check.svg.png","/wiki/Molecular_formula","/wiki/Molar_mass","/wiki/Density","/wiki/Melting_point","/wiki/Boiling_point","/wiki/Solubility","/wiki/Water","/wiki/MSDS","/wiki/NFPA_704","/wiki/File:NFPA_704.svg","//upload.wikimedia.org/wikipedia/commons/thumb/6/6f/NFPA_704.svg/75px-NFPA_704.svg.png","/wiki/Flash_point","//upload.wikimedia.org/wikipedia/en/thumb/f/fb/Yes_check.svg/14px-Yes_check.svg.png","//en.wikipedia.org/w/index.php?title=Special:ComparePages&rev1=456494006&page2=%28E%29-Stilbene","/wiki/Wikipedia:WikiProject_Chemicals/Chembox_validation","//upload.wikimedia.org/wikipedia/en/thumb/f/fb/Yes_check.svg/10px-Yes_check.svg.png","//upload.wikimedia.org/wikipedia/commons/thumb/a/a2/X_mark.svg/10px-X_mark.svg.png","/wiki/Standard_state","/wiki/Wikipedia:Chemical_infobox#References","/wiki/Diarylethene","/wiki/Hydrocarbon","/wiki/Ethene","/wiki/Phenyl","/wiki/Greek_language","#Isomers","#Uses","#Chemistry","#References","#External_links","/w/index.php?title=(E)-Stilbene&action=edit&section=1","/wiki/Cis-trans_isomerism","/wiki/(Z)-Stilbene","/wiki/Cis-trans_isomerism","/wiki/Sterically_hindered","/wiki/Conjugated_system","/wiki/Wikipedia:Citation_needed","#cite_note-1","/w/index.php?title=(E)-Stilbene&action=edit&section=2","/wiki/Dye","/wiki/Optical_brightener","/wiki/Phosphor","/wiki/Scintillator","/wiki/Gain_medium","/wiki/Dye_laser","/wiki/Stilbenoid","/wiki/Resveratrol","/wiki/Pterostilbene","/wiki/Diethylstilbestrol","/wiki/Fosfestrol","/wiki/Dienestrol","/w/index.php?title=(E)-Stilbene&action=edit&section=3","/wiki/Alkene#Chemical_properties","/wiki/Diarylethene","/wiki/Trans-cis_isomerization","/w/index.php?title=(E)-Stilbene&action=edit&section=4","#cite_ref-1","/wiki/International_Standard_Book_Number","/wiki/Special:BookSources/0-8493-0476-8","/w/index.php?title=(E)-Stilbene&action=edit&section=5","http://newsearchch.chemexper.com/cheminfo/servlet/org.dbcreator.MainServlet?searchTemplate=rn.value=%3D%3F&action=PowerSearch&format=ccd&options=brandqtyoffer&target=entry&searchValue=103-30-0","http://en.wikipedia.org/w/index.php?title=(E)-Stilbene&oldid=545410812","/wiki/Help:Categories","/wiki/Category:Luminescence","/wiki/Category:Fluorescent_dyes","/wiki/Category:Phosphors_and_scintillators","/wiki/Category:Laser_gain_media","/wiki/Category:Stilbenoids","/wiki/Category:All_articles_with_unsourced_statements","/wiki/Category:Articles_with_unsourced_statements_from_July_2008","/w/index.php?title=Special:UserLogin&returnto=%28E%29-Stilbene&type=signup","/w/index.php?title=Special:UserLogin&returnto=%28E%29-Stilbene","/wiki/(E)-Stilbene","/wiki/Talk:(E)-Stilbene","#","/wiki/(E)-Stilbene","/w/index.php?title=(E)-Stilbene&action=edit","/w/index.php?title=(E)-Stilbene&action=history","#","/w/index.php","//bits.wikimedia.org/static-1.22wmf9/skins/vector/images/search-ltr.png?303-4","/wiki/Main_Page","/wiki/Main_Page","/wiki/Portal:Contents","/wiki/Portal:Featured_content","/wiki/Portal:Current_events","/wiki/Special:Random","//donate.wikimedia.org/wiki/Special:FundraiserRedirector?utm_source=donate&utm_medium=sidebar&utm_campaign=C13_en.wikipedia.org&uselang=en","/wiki/Help:Contents","/wiki/Wikipedia:About","/wiki/Wikipedia:Community_portal","/wiki/Special:RecentChanges","//en.wikipedia.org/wiki/Wikipedia:Contact_us","/wiki/Special:WhatLinksHere/(E)-Stilbene","/wiki/Special:RecentChangesLinked/(E)-Stilbene","/wiki/Wikipedia:File_Upload_Wizard","/wiki/Special:SpecialPages","/w/index.php?title=(E)-Stilbene&oldid=545410812","/w/index.php?title=(E)-Stilbene&action=info","//www.wikidata.org/wiki/Q306338","/w/index.php?title=Special:Cite&page=%28E%29-Stilbene&id=545410812","/w/index.php?title=Special:Book&bookcmd=book_creator&referer=%28E%29-Stilbene","/w/index.php?title=Special:Book&bookcmd=render_article&arttitle=%28E%29-Stilbene&oldid=545410812&writer=rl","/w/index.php?title=(E)-Stilbene&printable=yes","//de.wikipedia.org/wiki/Stilben","//es.wikipedia.org/wiki/Estilbeno","//fa.wikipedia.org/wiki/%D8%A7%D8%B3%D8%AA%DB%8C%D9%84%D8%A8%D9%86_%D8%A6%DB%8C","//fr.wikipedia.org/wiki/Stilb%C3%A8ne","//it.wikipedia.org/wiki/Stilbene","//nl.wikipedia.org/wiki/Stilbeen","//ja.wikipedia.org/wiki/%E3%82%B9%E3%83%81%E3%83%AB%E3%83%99%E3%83%B3","//pl.wikipedia.org/wiki/Stylben","//pt.wikipedia.org/wiki/(E)-estilbeno","//ru.wikipedia.org/wiki/%D0%A2%D1%80%D0%B0%D0%BD%D1%81-%D0%A1%D1%82%D0%B8%D0%BB%D1%8C%D0%B1%D0%B5%D0%BD","//fi.wikipedia.org/wiki/(E)-stilbeeni","//zh.wikipedia.org/wiki/(E)-%E4%BA%8C%E8%8B%AF%E5%9F%BA%E4%B9%99%E7%83%AF","#","//www.wikidata.org/wiki/Q306338#sitelinks-wikipedia","//en.wikipedia.org/wiki/Wikipedia:Text_of_Creative_Commons_Attribution-ShareAlike_3.0_Unported_License","//creativecommons.org/licenses/by-sa/3.0/","//wikimediafoundation.org/wiki/Terms_of_Use","//wikimediafoundation.org/wiki/Privacy_policy","//www.wikimediafoundation.org/","//wikimediafoundation.org/wiki/Privacy_policy","/wiki/Wikipedia:About","/wiki/Wikipedia:General_disclaimer","//en.wikipedia.org/wiki/Wikipedia:Contact_us","//en.m.wikipedia.org/wiki/(E)-Stilbene","//wikimediafoundation.org/","//bits.wikimedia.org/images/wikimedia-button.png","//www.mediawiki.org/","//bits.wikimedia.org/static-1.22wmf9/skins/common/images/poweredby_mediawiki_88x31.png","//bits.wikimedia.org/en.wikipedia.org/load.php?debug=false&lang=en&modules=site&only=scripts&skin=vector&*"],"instances":[],"pdf":[],"categories":["Luminescence","Fluorescent dyes","Phosphors and scintillators","Laser gain media","Stilbenoids"],"headings":["Isomers","Uses","Chemistry","References","External links"],"image":["//upload.wikimedia.org/wikipedia/commons/thumb/2/2d/Stilbene_trans_structure.svg/150px-Stilbene_trans_structure.svg.png","//upload.wikimedia.org/wikipedia/commons/thumb/d/dd/Trans-stilbene-from-xtal-3D-balls.png/200px-Trans-stilbene-from-xtal-3D-balls.png","//upload.wikimedia.org/wikipedia/en/thumb/f/fb/Yes_check.svg/7px-Yes_check.svg.png","//upload.wikimedia.org/wikipedia/en/thumb/f/fb/Yes_check.svg/7px-Yes_check.svg.png","//upload.wikimedia.org/wikipedia/en/thumb/f/fb/Yes_check.svg/7px-Yes_check.svg.png","//upload.wikimedia.org/wikipedia/en/thumb/f/fb/Yes_check.svg/7px-Yes_check.svg.png","//upload.wikimedia.org/wikipedia/en/thumb/f/fb/Yes_check.svg/7px-Yes_check.svg.png","//upload.wikimedia.org/wikipedia/en/thumb/f/fb/Yes_check.svg/7px-Yes_check.svg.png","//upload.wikimedia.org/wikipedia/commons/thumb/6/6f/NFPA_704.svg/75px-NFPA_704.svg.png","//upload.wikimedia.org/wikipedia/en/thumb/f/fb/Yes_check.svg/14px-Yes_check.svg.png","//upload.wikimedia.org/wikipedia/en/thumb/f/fb/Yes_check.svg/10px-Yes_check.svg.png","//upload.wikimedia.org/wikipedia/commons/thumb/a/a2/X_mark.svg/10px-X_mark.svg.png","//bits.wikimedia.org/static-1.22wmf9/skins/vector/images/search-ltr.png?303-4","//bits.wikimedia.org/images/wikimedia-button.png","//bits.wikimedia.org/static-1.22wmf9/skins/common/images/poweredby_mediawiki_88x31.png"],"tags":[["(z-stilbene"]],"members":[],"related":["Diarylethene","Hydrocarbon","Ethene","Phenyl","Greek_language","(Z)-Stilbene","Sterically_hindered","Conjugated_system","Dye","Optical_brightener","Phosphor","Scintillator","Gain_medium","Dye_laser","Stilbenoid","Resveratrol","Pterostilbene","Diethylstilbestrol","Fosfestrol","Dienestrol","Diarylethene","Trans-cis_isomerization"]}