{"cursor":"6045","size":15,"audio":[],"currentlang":"en","article":"{{Chembox\n| verifiedrevid = 451750517 ImageFile = 2-methylhexane-2D-skeletal.png\n| ImageFile_Ref = ImageSize = 160 ImageName = Skeletal formula of 2-methylhexane\n| ImageFile1 = 2-methylhexane.png ImageFile1_Ref = ImageName1 = Skeletal formula\n| of 2-methylhexane with all implicit carbons shown, and all explicit hydrogens\n| added ImageFile2 = 2-methylhexane-3D-balls.png ImageFile2_Ref = ImageSize2 =\n| 160 ImageName2 = Ball and stick model of 2-methylhexane IUPACName = 2-\n| Methylhexane Section1 = {{Chembox Identifiers CASNo = 591-76-4\n| CASNo_Ref = PubChem = 11582 PubChem_Ref = ChemSpiderID = 11094\n| ChemSpiderID_Ref = EINECS = 209-730-6 UNNumber = 3295 RTECS = MO3871500\n| Beilstein = 1696856 SMILES = CCCCC(C)C StdInChI = 1S/C7H16/c1-4-5-6-7(2)3/h7H,4-6H2,1-\n| 3H3 StdInChI_Ref = StdInChIKey = GXDHCNNESPLIKD-UHFFFAOYSA-N StdInChIKey_Ref =\n}}\n| Section2 = {{Chembox Properties C = 7 H = 16 Appearance = Colorless liquid\n| Odor = Odorless Density = 679 mg ml –1 MeltingPtKL = 154.1\n| MeltingPtKH = 155.3 BoilingPtKL = 362.7 BoilingPtKH = 363.7 HenryConstant 19\n| nmol Pa −1 kg −1 VaporPressure = 15.7 kPa (at 37.7 °C)\n| RefractIndex = 1.384\n}}\n| Section3 = {{Chembox Thermochemistry DeltaHf = −231.1–−228.5 kJ\n| mol −1 DeltaHc = −4.8127–−4.8103 MJ mol −1 Entropy =\n| 323.34 J K −1 mol −1 HeatCapacity = 222.92 J\n| K −1 mol −1\n}}\n| Section4 = {{Chembox Hazards GHSPictograms = GHSSignalWord = 'DANGER' HPhrases\n| = PPhrases = EUIndex = 601-008-00-2 EUClass = RPhrases = , , , , SPhrases = ,\n| , , NFPA-H = 2 NFPA-R = 0 NFPA-F = 3 FlashPt = −1 °C Autoignition = 280 °C\n| ExploLimits = 1–7%\n}}\n| Section5 = {{Chembox Related Function = alkanes OtherFunctn = OtherCpds =\n}} }} '2-Methylhexane' ('[[Carbon|C]] 7[[Hydrogen|H]] 16 ',\nalso known as 'isoheptane', 'ethylisobutylmethane') is an isomer of heptane. It\nis structurally a hexane molecule with a methyl group attached to its second\ncarbon atom. It exists in most commercially available heptane merchandises as an\nimpurity but is usually not considered as impurity in terms of reactions since\nit has very similar physical and chemical properties when compared to n-heptane\n(straight-chained heptane).\n\nBeing an alkane, 2-methylhexane is insoluble in water, but is soluble in many\norganic solvents, such as alcohols and ether. However, 2-methylhexane is more\ncommonly considered as a solvent itself. Therefore, even though it is present in\nmany commercially available heptane products, it is not considered as a\ndestructive impurity, as heptane is usually used as a solvent. Nevertheless, by\nconcise processes of distillation and refining, it is possible to separate 2-\nmethylhexane from n-heptane.\n\nWithin a group of isomers, those with more branches tend to ignite more easily\nand combust more completely. Therefore, 2-methylhexane has a lower autoignition\ntemperature and flash point when compared to heptane. Theoretically 2-\nmethylhexane also burns with a less sooty flame, emitting higher-frequency\nradiation; however, as heptane and 2-methylhexane differ by only one carbon\natom, in terms of branching, both burn with a bright yellow flame when ignited.\n\nCompared to n-heptane, 2-methylhexane also has lower melting and boiling points.\nA lower density of liquid is found in 2-Methylhexane than heptane.\n\nOn the NFPA 704 scale, 2-methylhexane is listed as a reactivity level-0\nchemical, along with various other alkanes. In fact, most alkanes are\nunreactive except in extreme conditions, such as combustion or strong sunlight.\nAt the presence of oxygen and flame, 2-methylhexane, like heptane, combusts\nmostly completely into water and carbon dioxide. With UV-light and mixed with\nhalogens in solvents, usually bromine in 1,1,1-trichloroethane, a substitution\nreaction occurs.\n","linknr":216,"url":"2-Methylhexane","recorded":1362904729,"links":41,"instances":["chemistry"],"pdf":["https://www.mathesongas.com/pdfs/msds/MAT27910.pdf","https://www.mathesongas.com/pdfs/msds/MAT27910.pdf"],"categories":["Alkanes"],"headings":["See also","References"],"image":["//upload.wikimedia.org/wikipedia/commons/thumb/b/b3/2-methylhexane-2D-skeletal.png/160px-2-methylhexane-2D-skeletal.png","//upload.wikimedia.org/wikipedia/commons/thumb/8/83/2-methylhexane.png/200px-2-methylhexane.png","//upload.wikimedia.org/wikipedia/commons/thumb/2/2d/2-methylhexane-3D-balls.png/160px-2-methylhexane-3D-balls.png","//upload.wikimedia.org/wikipedia/en/thumb/f/fb/Yes_check.svg/7px-Yes_check.svg.png","//upload.wikimedia.org/wikipedia/en/thumb/f/fb/Yes_check.svg/7px-Yes_check.svg.png","//upload.wikimedia.org/wikipedia/en/thumb/f/fb/Yes_check.svg/7px-Yes_check.svg.png","//upload.wikimedia.org/wikipedia/en/thumb/f/fb/Yes_check.svg/7px-Yes_check.svg.png","//upload.wikimedia.org/wikipedia/commons/thumb/6/6d/GHS-pictogram-flamme.svg/50px-GHS-pictogram-flamme.svg.png","//upload.wikimedia.org/wikipedia/commons/thumb/c/c3/GHS-pictogram-exclam.svg/50px-GHS-pictogram-exclam.svg.png","//upload.wikimedia.org/wikipedia/commons/thumb/d/d5/GHS-pictogram-silhouete.svg/50px-GHS-pictogram-silhouete.svg.png","//upload.wikimedia.org/wikipedia/commons/thumb/b/b9/GHS-pictogram-pollu.svg/50px-GHS-pictogram-pollu.svg.png","//upload.wikimedia.org/wikipedia/commons/thumb/0/06/Hazard_F.svg/40px-Hazard_F.svg.png","//upload.wikimedia.org/wikipedia/commons/thumb/e/ed/Hazard_X.svg/40px-Hazard_X.svg.png","//upload.wikimedia.org/wikipedia/commons/thumb/6/6a/Hazard_N.svg/40px-Hazard_N.svg.png","//upload.wikimedia.org/wikipedia/commons/thumb/6/6f/NFPA_704.svg/75px-NFPA_704.svg.png","//upload.wikimedia.org/wikipedia/en/thumb/f/fb/Yes_check.svg/14px-Yes_check.svg.png","//upload.wikimedia.org/wikipedia/en/thumb/f/fb/Yes_check.svg/10px-Yes_check.svg.png","//upload.wikimedia.org/wikipedia/commons/thumb/a/a2/X_mark.svg/10px-X_mark.svg.png","//bits.wikimedia.org/static-1.21wmf10/skins/vector/images/search-ltr.png?303-4","//bits.wikimedia.org/images/wikimedia-button.png","//bits.wikimedia.org/static-1.21wmf10/skins/common/images/poweredby_mediawiki_88x31.png"],"tags":[["branching","chemistry"]],"members":["branching"],"related":["Isomer","Heptane","Hexane","Methyl_group","Impurity","Physical_property","Chemical_property","Water","Alcohol","Ether","Solvent","Distillation","Refining","Branching_(chemistry)","Combustion","Autoignition_temperature","Flash_point","Atom","Melting_point","Boiling_point","NFPA_704","Alkane","Sunlight","Oxygen","Flame","Water","Carbon_dioxide","Ultraviolet","Halogen","Bromine","1,1,1-Trichloroethane","Substitution_reaction","3-Methylhexane"]}