{"cursor":"3106","size":15,"audio":[],"currentlang":"en","article":"\n{{Chembox\n| verifiedrevid = 424885922 ImageFile = 2-Methylheptane.png ImageFile_Ref =\n| ImageSize = 160 ImageName = Skeletal formula of 2-methylheptane ImageFile1 =\n| 2-methyl-heptane-spaceFill.png ImageFile1_Ref = ImageSize1 = 160 ImageName1 =\n| Spacefill model of 2-methylheptane IUPACName = 2-Methylheptane\n| Section1 = {{Chembox Identifiers CASNo = 592-27-8 CASNo_Ref = PubChem = 11594\n| PubChem_Ref = ChemSpiderID = 11106 ChemSpiderID_Ref = EINECS = 209-747-9\n| UNNumber = 1262 Beilstein = 1696862 SMILES = CCCCCC(C)C StdInChI = 1S/C8H18/c1-4-5-6-7-8(2)3/h8H,4-7H2,1-\n| 3H3 StdInChI_Ref = StdInChIKey = JVSWJIKNEAIKJW-UHFFFAOYSA-N StdInChIKey_Ref =\n}}\n| Section2 = {{Chembox Properties C = 8 H = 18 Appearance = Colourless liquid\n| Odor = Odourless Density = 698 mg mL −1 MeltingPtKL = 161\n| MeltingPtKH = 165 BoilingPtKL = 389.9 BoilingPtKH = 391.5 VaporPressure = 5.3\n| kPa (at 37.7 °C) HenryConstant = 2.7 nmol Pa −1 kg −1\n| RefractIndex = 1.395–1.396\n}}\n| Section3 = {{Chembox Thermochemistry DeltaHf = −256.5–−253.9 kJ\n| mol −1 DeltaHc = −5466.7–−5464.3 kJ mol −1 Entropy =\n| 356.39 J K −1 mol −1 HeatCapacity = 252.00 J\n| K −1 mol −1\n}}\n| Section4 = {{Chembox Hazards GHSPictograms = GHSSignalWord = 'DANGER' HPhrases\n| = PPhrases = EUIndex = 601-009-00-8 EUClass = NFPA-H = 0 NFPA-F = 3 NFPA-R = 0\n| RPhrases = , , , , SPhrases = , , , FlashPt = 4.4 °C ExploLimits = 0.98–?%\n}}\n| Section5 = {{Chembox Related Function = alkanes OtherFunctn = OtherCpds =\n}} }} '2-Methylheptane' is a branched alkane isomeric to octane. Its structural\nformula is\n(CH 3) 2CH(CH 2) 4CH 3.\n","linknr":214,"url":"2-Methylheptane","recorded":1374520134,"links":["/w/index.php?title=2-Methylheptane&action=edit","/w/index.php?title=2-Methylheptane&action=edit","//bits.wikimedia.org/favicon/wikipedia.ico","/w/opensearch_desc.php","//en.wikipedia.org/w/api.php?action=rsd","//creativecommons.org/licenses/by-sa/3.0/","/w/index.php?title=Special:RecentChanges&feed=atom","//bits.wikimedia.org/en.wikipedia.org/load.php?debug=false&lang=en&modules=ext.gadget.DRN-wizard%2CReferenceTooltips%2Ccharinsert%2Cteahouse%7Cext.rtlcite%2Cwikihiero%7Cext.uls.nojs%7Cmediawiki.legacy.commonPrint%2Cshared%7Cmw.PopUpMediaTransform%7Cskins.vector&only=styles&skin=vector&*","//bits.wikimedia.org/en.wikipedia.org/load.php?debug=false&lang=en&modules=site&only=styles&skin=vector&*","//bits.wikimedia.org/en.wikipedia.org/load.php?debug=false&lang=en&modules=startup&only=scripts&skin=vector&*","//bits.wikimedia.org/geoiplookup","//meta.wikimedia.org","#mw-navigation","#p-search","//upload.wikimedia.org/wikipedia/en/thumb/9/99/Question_book-new.svg/50px-Question_book-new.svg.png","//en.wikipedia.org/w/index.php?title=2-Methylheptane&action=edit","/wiki/Help:Introduction_to_referencing/1","/wiki/Template:Citation_needed","/wiki/Wikipedia:Verifiability#Burden_of_evidence","/wiki/File:2-Methylheptane.png","//upload.wikimedia.org/wikipedia/commons/thumb/3/34/2-Methylheptane.png/160px-2-Methylheptane.png","/wiki/File:2-methyl-heptane-spaceFill.png","//upload.wikimedia.org/wikipedia/commons/thumb/c/c1/2-methyl-heptane-spaceFill.png/160px-2-methyl-heptane-spaceFill.png","/wiki/International_Union_of_Pure_and_Applied_Chemistry_nomenclature","#cite_note-1","/wiki/CAS_registry_number","http://www.commonchemistry.org/ChemicalDetail.aspx?ref=592-27-8","//upload.wikimedia.org/wikipedia/en/thumb/f/fb/Yes_check.svg/7px-Yes_check.svg.png","/wiki/PubChem","http://pubchem.ncbi.nlm.nih.gov/summary/summary.cgi?cid=11594","/wiki/ChemSpider","http://www.chemspider.com/11106","//upload.wikimedia.org/wikipedia/en/thumb/f/fb/Yes_check.svg/7px-Yes_check.svg.png","/wiki/EC_number_(chemistry)","http://esis.jrc.ec.europa.eu/lib/einecs_IS_reponse.php?genre=ECNO&entree=209-747-9","/wiki/UN_number","/wiki/Beilstein_database","/wiki/Jmol","http://chemapps.stolaf.edu/jmol/jmol.php?model=CCCCCC%28C%29C","/wiki/Simplified_molecular-input_line-entry_system","/wiki/International_Chemical_Identifier","//upload.wikimedia.org/wikipedia/en/thumb/f/fb/Yes_check.svg/7px-Yes_check.svg.png","//upload.wikimedia.org/wikipedia/en/thumb/f/fb/Yes_check.svg/7px-Yes_check.svg.png","/wiki/Molecular_formula","/wiki/Molar_mass","/wiki/Odor","/wiki/Density","/wiki/Melting_point","/wiki/Boiling_point","/wiki/Vapor_pressure","/wiki/Henry%27s_law","/wiki/Refractive_index","/wiki/Standard_enthalpy_change_of_formation","/wiki/Standard_enthalpy_change_of_combustion","/wiki/Standard_molar_entropy","/wiki/Specific_heat_capacity","/wiki/GHS_hazard_pictograms","/wiki/File:GHS-pictogram-flamme.svg","//upload.wikimedia.org/wikipedia/commons/thumb/6/6d/GHS-pictogram-flamme.svg/50px-GHS-pictogram-flamme.svg.png","/wiki/File:GHS-pictogram-exclam.svg","//upload.wikimedia.org/wikipedia/commons/thumb/c/c3/GHS-pictogram-exclam.svg/50px-GHS-pictogram-exclam.svg.png","/wiki/File:GHS-pictogram-silhouete.svg","//upload.wikimedia.org/wikipedia/commons/thumb/d/d5/GHS-pictogram-silhouete.svg/50px-GHS-pictogram-silhouete.svg.png","/wiki/File:GHS-pictogram-pollu.svg","//upload.wikimedia.org/wikipedia/commons/thumb/b/b9/GHS-pictogram-pollu.svg/50px-GHS-pictogram-pollu.svg.png","/wiki/Globally_Harmonized_System_of_Classification_and_Labelling_of_Chemicals","/wiki/GHS_hazard_statement","/wiki/GHS_precautionary_statements","/wiki/Dangerous_Substances_Directive_(67/548/EEC)","/wiki/File:Hazard_F.svg","//upload.wikimedia.org/wikipedia/commons/thumb/0/06/Hazard_F.svg/40px-Hazard_F.svg.png","/wiki/File:Hazard_X.svg","//upload.wikimedia.org/wikipedia/commons/thumb/e/ed/Hazard_X.svg/40px-Hazard_X.svg.png","/wiki/File:Hazard_N.svg","//upload.wikimedia.org/wikipedia/commons/thumb/6/6a/Hazard_N.svg/40px-Hazard_N.svg.png","/wiki/List_of_R-phrases","/wiki/R11:_Highly_flammable","/wiki/R38:_Irritating_to_skin","/wiki/R50/53:_Very_toxic_to_aquatic_organisms,_may_cause_long-term_adverse_effects_in_the_aquatic_environment","/wiki/R65:_Harmful:_may_cause_lung_damage_if_swallowed","/wiki/R67:_Vapours_may_cause_drowsiness_and_dizziness","/wiki/List_of_S-phrases","/wiki/(S2):_Keep_out_of_the_reach_of_children","/wiki/S16:_Keep_away_from_sources_of_ignition_-_No_smoking","/wiki/S29:_Do_not_empty_into_drains","/wiki/S33:_Take_precautionary_measures_against_static_discharges","/wiki/NFPA_704","/wiki/File:NFPA_704.svg","//upload.wikimedia.org/wikipedia/commons/thumb/6/6f/NFPA_704.svg/75px-NFPA_704.svg.png","/wiki/Flash_point","/wiki/Explosive_limit","/wiki/2-Methylhexane","/wiki/3-Methylhexane","/wiki/3-Methylheptane","/wiki/Valnoctamide","/wiki/2-Ethylhexanol","/wiki/Valpromide","/wiki/2-Ethylhexanoic_acid","/wiki/Propylheptyl_alcohol","//upload.wikimedia.org/wikipedia/en/thumb/f/fb/Yes_check.svg/14px-Yes_check.svg.png","//en.wikipedia.org/w/index.php?title=Special:ComparePages&rev1=424885922&page2=2-Methylheptane","/wiki/Wikipedia:WikiProject_Chemicals/Chembox_validation","//upload.wikimedia.org/wikipedia/en/thumb/f/fb/Yes_check.svg/10px-Yes_check.svg.png","//upload.wikimedia.org/wikipedia/commons/thumb/a/a2/X_mark.svg/10px-X_mark.svg.png","/wiki/Standard_state","/wiki/Wikipedia:Chemical_infobox#References","/wiki/Alkane","/wiki/Isomer","/wiki/Octane","/wiki/Structural_formula","/w/index.php?title=2-Methylheptane&action=edit&section=1","#cite_ref-1","http://pubchem.ncbi.nlm.nih.gov/summary/summary.cgi?cid=11594&loc=ec_rcs","/w/index.php?title=2-Methylheptane&action=edit&section=2","http://www.inchem.org/documents/icsc/icsc/eics0731.htm","http://www.cheric.org/kdb/kdb/hcprop/showprop.php?cmpid=47","/wiki/File:Hexane-3D-space-filling.png","//upload.wikimedia.org/wikipedia/commons/thumb/1/15/Hexane-3D-space-filling.png/40px-Hexane-3D-space-filling.png","/wiki/Hydrocarbon","/wiki/Wikipedia:Stub","//en.wikipedia.org/w/index.php?title=2-Methylheptane&action=edit","/wiki/Template:Hydrocarbon-stub","/wiki/Template_talk:Hydrocarbon-stub","//en.wikipedia.org/w/index.php?title=Template:Hydrocarbon-stub&action=edit","/wiki/Template:Alkanes","/wiki/Template_talk:Alkanes","//en.wikipedia.org/w/index.php?title=Template:Alkanes&action=edit","/wiki/Alkane","/wiki/Methane","/wiki/Ethane","/wiki/Propane","/wiki/Butane","/wiki/Pentane","/wiki/Hexane","/wiki/Heptane","/wiki/Octane","/wiki/Nonane","/wiki/Decane","/wiki/Undecane","/wiki/Dodecane","/wiki/Tridecane","/wiki/Tetradecane","/wiki/Pentadecane","/wiki/Hexadecane","/wiki/Heptadecane","/wiki/Octadecane","/wiki/Nonadecane","/wiki/Icosane","/wiki/Higher_alkanes","/wiki/List_of_straight-chain_alkanes","//en.wikipedia.org/w/index.php?title=Special:CentralAutoLogin/start&type=1x1&from=enwiki","http://en.wikipedia.org/w/index.php?title=2-Methylheptane&oldid=540563740","/wiki/Help:Categories","/wiki/Category:Hydrocarbon_stubs","/wiki/Category:Alkanes","/wiki/Category:Articles_needing_additional_references_from_September_2007","/wiki/Category:All_articles_needing_additional_references","/w/index.php?title=Special:UserLogin&returnto=2-Methylheptane&type=signup","/w/index.php?title=Special:UserLogin&returnto=2-Methylheptane","/wiki/2-Methylheptane","/wiki/Talk:2-Methylheptane","#","/wiki/2-Methylheptane","/w/index.php?title=2-Methylheptane&action=edit","/w/index.php?title=2-Methylheptane&action=history","#","/w/index.php","//bits.wikimedia.org/static-1.22wmf10/skins/vector/images/search-ltr.png?303-4","/wiki/Main_Page","/wiki/Main_Page","/wiki/Portal:Contents","/wiki/Portal:Featured_content","/wiki/Portal:Current_events","/wiki/Special:Random","//donate.wikimedia.org/wiki/Special:FundraiserRedirector?utm_source=donate&utm_medium=sidebar&utm_campaign=C13_en.wikipedia.org&uselang=en","/wiki/Help:Contents","/wiki/Wikipedia:About","/wiki/Wikipedia:Community_portal","/wiki/Special:RecentChanges","//en.wikipedia.org/wiki/Wikipedia:Contact_us","/wiki/Special:WhatLinksHere/2-Methylheptane","/wiki/Special:RecentChangesLinked/2-Methylheptane","/wiki/Wikipedia:File_Upload_Wizard","/wiki/Special:SpecialPages","/w/index.php?title=2-Methylheptane&oldid=540563740","/w/index.php?title=2-Methylheptane&action=info","//www.wikidata.org/wiki/Q2493733","/w/index.php?title=Special:Cite&page=2-Methylheptane&id=540563740","/w/index.php?title=Special:Book&bookcmd=book_creator&referer=2-Methylheptane","/w/index.php?title=Special:Book&bookcmd=render_article&arttitle=2-Methylheptane&oldid=540563740&writer=rl","/w/index.php?title=2-Methylheptane&printable=yes","//el.wikipedia.org/wiki/2-%CE%BC%CE%B5%CE%B8%CF%85%CE%BB%CE%B5%CF%80%CF%84%CE%AC%CE%BD%CE%B9%CE%BF","//es.wikipedia.org/wiki/2-metilheptano","//fr.wikipedia.org/wiki/2-m%C3%A9thylheptane","//id.wikipedia.org/wiki/2-Metilheptana","//nl.wikipedia.org/wiki/2-methylheptaan","//pt.wikipedia.org/wiki/2-Metil-heptano","//fi.wikipedia.org/wiki/2-metyyliheptaani","#","//www.wikidata.org/wiki/Q2493733#sitelinks-wikipedia","//en.wikipedia.org/wiki/Wikipedia:Text_of_Creative_Commons_Attribution-ShareAlike_3.0_Unported_License","//creativecommons.org/licenses/by-sa/3.0/","//wikimediafoundation.org/wiki/Terms_of_Use","//wikimediafoundation.org/wiki/Privacy_policy","//www.wikimediafoundation.org/","//wikimediafoundation.org/wiki/Privacy_policy","/wiki/Wikipedia:About","/wiki/Wikipedia:General_disclaimer","//en.wikipedia.org/wiki/Wikipedia:Contact_us","//en.m.wikipedia.org/wiki/2-Methylheptane","//wikimediafoundation.org/","//bits.wikimedia.org/images/wikimedia-button.png","//www.mediawiki.org/","//bits.wikimedia.org/static-1.22wmf10/skins/common/images/poweredby_mediawiki_88x31.png","//bits.wikimedia.org/en.wikipedia.org/load.php?debug=false&lang=en&modules=site&only=scripts&skin=vector&*"],"instances":[],"pdf":[],"categories":["Alkanes"],"headings":["References","External links"],"image":["//upload.wikimedia.org/wikipedia/en/thumb/9/99/Question_book-new.svg/50px-Question_book-new.svg.png","//upload.wikimedia.org/wikipedia/commons/thumb/3/34/2-Methylheptane.png/160px-2-Methylheptane.png","//upload.wikimedia.org/wikipedia/commons/thumb/c/c1/2-methyl-heptane-spaceFill.png/160px-2-methyl-heptane-spaceFill.png","//upload.wikimedia.org/wikipedia/en/thumb/f/fb/Yes_check.svg/7px-Yes_check.svg.png","//upload.wikimedia.org/wikipedia/en/thumb/f/fb/Yes_check.svg/7px-Yes_check.svg.png","//upload.wikimedia.org/wikipedia/en/thumb/f/fb/Yes_check.svg/7px-Yes_check.svg.png","//upload.wikimedia.org/wikipedia/en/thumb/f/fb/Yes_check.svg/7px-Yes_check.svg.png","//upload.wikimedia.org/wikipedia/commons/thumb/6/6d/GHS-pictogram-flamme.svg/50px-GHS-pictogram-flamme.svg.png","//upload.wikimedia.org/wikipedia/commons/thumb/c/c3/GHS-pictogram-exclam.svg/50px-GHS-pictogram-exclam.svg.png","//upload.wikimedia.org/wikipedia/commons/thumb/d/d5/GHS-pictogram-silhouete.svg/50px-GHS-pictogram-silhouete.svg.png","//upload.wikimedia.org/wikipedia/commons/thumb/b/b9/GHS-pictogram-pollu.svg/50px-GHS-pictogram-pollu.svg.png","//upload.wikimedia.org/wikipedia/commons/thumb/0/06/Hazard_F.svg/40px-Hazard_F.svg.png","//upload.wikimedia.org/wikipedia/commons/thumb/e/ed/Hazard_X.svg/40px-Hazard_X.svg.png","//upload.wikimedia.org/wikipedia/commons/thumb/6/6a/Hazard_N.svg/40px-Hazard_N.svg.png","//upload.wikimedia.org/wikipedia/commons/thumb/6/6f/NFPA_704.svg/75px-NFPA_704.svg.png","//upload.wikimedia.org/wikipedia/en/thumb/f/fb/Yes_check.svg/14px-Yes_check.svg.png","//upload.wikimedia.org/wikipedia/en/thumb/f/fb/Yes_check.svg/10px-Yes_check.svg.png","//upload.wikimedia.org/wikipedia/commons/thumb/a/a2/X_mark.svg/10px-X_mark.svg.png","//upload.wikimedia.org/wikipedia/commons/thumb/1/15/Hexane-3D-space-filling.png/40px-Hexane-3D-space-filling.png","//en.wikipedia.org/w/index.php?title=Special:CentralAutoLogin/start&type=1x1&from=enwiki","//bits.wikimedia.org/static-1.22wmf10/skins/vector/images/search-ltr.png?303-4","//bits.wikimedia.org/images/wikimedia-button.png","//bits.wikimedia.org/static-1.22wmf10/skins/common/images/poweredby_mediawiki_88x31.png"],"tags":[],"members":[],"related":["Alkane","Isomer","Octane","Structural_formula"]}