{"cursor":"3159","size":15,"audio":[],"currentlang":"en","article":"{{chembox\n| verifiedrevid = 443367538 Name = cis-Aconitic acid (top) and\n| trans-Aconitic acid (bottom) ImageFile1 = Cis-aconitic acid.png\n| ImageSize1 = 200px ImageName1 = cis-Aconitic acid ImageFile2 = Trans-aconitic\n| acid.png ImageSize2 = 200px ImageName2 = trans-Aconitic acid IUPACName = Prop-1-ene-1,2,3-\n| tricarboxylic acid OtherNames = Achilleic acid; Equisetic acid; Citridinic\n| acid; Pyrocitric acid Reference =  Section1 = {{Chembox Identifiers\n| ChemSpiderID_Ref = ChemSpiderID = 303 UNII_Ref = UNII = 93371T1BXP InChI = 1/C6H6O6/c7-4(8)1-3(6(11)12)2-\n| 5(9)10/h1H,2H2,(H,7,8)(H,9,10)(H,11,12) InChIKey = GTZCVFVGUGFEME-UHFFFAOYAL\n| StdInChI_Ref = StdInChI = 1S/C6H6O6/c7-4(8)1-3(6(11)12)2-\n| 5(9)10/h1H,2H2,(H,7,8)(H,9,10)(H,11,12) StdInChIKey_Ref = StdInChIKey = GTZCVFVGUGFEME-UHFFFAOYSA-\n| N CASNo_Ref = CASNo = 499-12-7 PubChem = 309 ChEBI_Ref = ChEBI = 22211 SMILES\n| = O=C(O)CC(=CC(=O)O)C(=O)O MeSHName = Aconitate\n  }}\n| Section2 = {{Chembox Properties C=6|H=6|O=6 Appearance = Colorless crystals\n| Density = MeltingPt = 190 °C (decomp) (trans isomer), 122 °C (cis isomer)\n| BoilingPt = pKa = 2.80, 4.46 (trans isomer)\n  }}\n| Section3 = {{Chembox Hazards Solubility = water MainHazards = FlashPt =\n| Autoignition =\n  }} }}\n\n'Aconitic acid' is an organic acid. The two isomers are cis-aconitic acid and\ntrans-aconitic acid. The conjugate base of cis-aconitic acid, cis-'aconitate' is\nan intermediate in the isomerization of citrate to isocitrate in the citric acid\ncycle. It is acted upon by the enzyme aconitase.\n\nAconitic acid can be synthesized by dehydration of citric acid using sulfuric\nacid:\n:(HO 2CCH 2) 2COH(CO 2H) →\n:HO 2CCH=C(CO 2H)CH 2CO 2H +\n:H 2O\n\nIt was first prepared by thermal dehydration.\n","linknr":256,"url":"Aconitic_acid","recorded":1374520866,"links":["/w/index.php?title=Aconitic_acid&action=edit","/w/index.php?title=Aconitic_acid&action=edit","//bits.wikimedia.org/favicon/wikipedia.ico","/w/opensearch_desc.php","//en.wikipedia.org/w/api.php?action=rsd","//creativecommons.org/licenses/by-sa/3.0/","/w/index.php?title=Special:RecentChanges&feed=atom","//bits.wikimedia.org/en.wikipedia.org/load.php?debug=false&lang=en&modules=ext.gadget.DRN-wizard%2CReferenceTooltips%2Ccharinsert%2Cteahouse%7Cext.rtlcite%2Cwikihiero%7Cext.uls.nojs%7Cmediawiki.legacy.commonPrint%2Cshared%7Cmw.PopUpMediaTransform%7Cskins.vector&only=styles&skin=vector&*","//bits.wikimedia.org/en.wikipedia.org/load.php?debug=false&lang=en&modules=site&only=styles&skin=vector&*","//bits.wikimedia.org/en.wikipedia.org/load.php?debug=false&lang=en&modules=startup&only=scripts&skin=vector&*","//bits.wikimedia.org/geoiplookup","//meta.wikimedia.org","#mw-navigation","#p-search","#cite_note-1","/wiki/File:Cis-aconitic_acid.png","//upload.wikimedia.org/wikipedia/commons/thumb/e/e1/Cis-aconitic_acid.png/200px-Cis-aconitic_acid.png","/wiki/File:Trans-aconitic_acid.png","//upload.wikimedia.org/wikipedia/commons/thumb/7/73/Trans-aconitic_acid.png/200px-Trans-aconitic_acid.png","/wiki/International_Union_of_Pure_and_Applied_Chemistry_nomenclature","/wiki/CAS_registry_number","http://www.commonchemistry.org/ChemicalDetail.aspx?ref=499-12-7","//upload.wikimedia.org/wikipedia/en/thumb/f/fb/Yes_check.svg/7px-Yes_check.svg.png","/wiki/PubChem","http://pubchem.ncbi.nlm.nih.gov/summary/summary.cgi?cid=309","/wiki/ChemSpider","http://www.chemspider.com/303","//upload.wikimedia.org/wikipedia/en/thumb/f/fb/Yes_check.svg/7px-Yes_check.svg.png","/wiki/Unique_Ingredient_Identifier","http://fdasis.nlm.nih.gov/srs/srsdirect.jsp?regno=93371T1BXP","//upload.wikimedia.org/wikipedia/en/thumb/f/fb/Yes_check.svg/7px-Yes_check.svg.png","/wiki/Medical_Subject_Headings","http://www.nlm.nih.gov/cgi/mesh/2007/MB_cgi?mode=&term=Aconitate","/wiki/ChEBI","https://www.ebi.ac.uk/chebi/searchId.do?chebiId=22211","//upload.wikimedia.org/wikipedia/en/thumb/f/fb/Yes_check.svg/7px-Yes_check.svg.png","/wiki/Jmol","http://chemapps.stolaf.edu/jmol/jmol.php?model=O%3DC%28O%29CC%28%3DCC%28%3DO%29O%29C%28%3DO%29O","/wiki/Simplified_molecular-input_line-entry_system","/wiki/International_Chemical_Identifier","//upload.wikimedia.org/wikipedia/en/thumb/f/fb/Yes_check.svg/7px-Yes_check.svg.png","//upload.wikimedia.org/wikipedia/en/thumb/f/fb/Yes_check.svg/7px-Yes_check.svg.png","/wiki/Molecular_formula","/wiki/Molar_mass","/wiki/Melting_point","/wiki/Acid_dissociation_constant","#cite_note-2","//upload.wikimedia.org/wikipedia/en/thumb/f/fb/Yes_check.svg/14px-Yes_check.svg.png","//en.wikipedia.org/w/index.php?title=Special:ComparePages&rev1=443367538&page2=Aconitic+acid","/wiki/Wikipedia:WikiProject_Chemicals/Chembox_validation","//upload.wikimedia.org/wikipedia/en/thumb/f/fb/Yes_check.svg/10px-Yes_check.svg.png","//upload.wikimedia.org/wikipedia/commons/thumb/a/a2/X_mark.svg/10px-X_mark.svg.png","/wiki/Standard_state","/wiki/Wikipedia:Chemical_infobox#References","/wiki/Cis-trans_isomerism","/wiki/Conjugate_base","/wiki/Isomer","/wiki/Citrate","/wiki/Isocitrate","/wiki/Citric_acid_cycle","/wiki/Aconitase","/wiki/Citric_acid","/wiki/Sulfuric_acid","#cite_note-3","#cite_note-4","/w/index.php?title=Aconitic_acid&action=edit&section=1","#cite_ref-1","http://pubchem.ncbi.nlm.nih.gov/summary/summary.cgi?cid=309","/wiki/PubChem","#cite_ref-2","/wiki/International_Standard_Book_Number","/wiki/Special:BookSources/9780198552994","#cite_ref-3","http://www.orgsyn.org/orgsyn/orgsyn/prepContent.asp?prep=CV2P0012","/wiki/Organic_Syntheses","#cite_ref-4","/wiki/Digital_object_identifier","http://dx.doi.org/10.1002%2Fjlac.18751780203","/wiki/Template:Citric_acid_cycle","/wiki/Template_talk:Citric_acid_cycle","//en.wikipedia.org/w/index.php?title=Template:Citric_acid_cycle&action=edit","/wiki/Citric_acid_cycle","/wiki/Metabolic_pathway","/wiki/Oxaloacetic_acid","/wiki/Malic_acid","/wiki/Fumaric_acid","/wiki/Succinic_acid","/wiki/Succinyl-CoA","/wiki/File:Oxaloacetate_wpmp.png","//upload.wikimedia.org/wikipedia/commons/thumb/c/c8/Oxaloacetate_wpmp.png/24px-Oxaloacetate_wpmp.png","/wiki/File:S-malate_wpmp.png","//upload.wikimedia.org/wikipedia/commons/thumb/e/e3/S-malate_wpmp.png/27px-S-malate_wpmp.png","/wiki/File:Fumarate_wpmp.png","//upload.wikimedia.org/wikipedia/commons/thumb/7/70/Fumarate_wpmp.png/24px-Fumarate_wpmp.png","/wiki/File:Succinate_wpmp.png","//upload.wikimedia.org/wikipedia/commons/thumb/5/5a/Succinate_wpmp.png/24px-Succinate_wpmp.png","/wiki/File:Succinyl-CoA_wpmp.png","//upload.wikimedia.org/wikipedia/commons/thumb/d/db/Succinyl-CoA_wpmp.png/24px-Succinyl-CoA_wpmp.png","/wiki/File:Biochem_reaction_arrow_reverse_NNYY_horiz_med.png","//upload.wikimedia.org/wikipedia/commons/thumb/5/56/Biochem_reaction_arrow_reverse_NNYY_horiz_med.png/35px-Biochem_reaction_arrow_reverse_NNYY_horiz_med.png","/wiki/File:Biochem_reaction_arrow_reverse_NNYN_horiz_med.png","//upload.wikimedia.org/wikipedia/commons/thumb/d/d5/Biochem_reaction_arrow_reverse_NNYN_horiz_med.png/35px-Biochem_reaction_arrow_reverse_NNYN_horiz_med.png","/wiki/File:Biochem_reaction_arrow_reverse_NNYY_horiz_med.png","//upload.wikimedia.org/wikipedia/commons/thumb/5/56/Biochem_reaction_arrow_reverse_NNYY_horiz_med.png/35px-Biochem_reaction_arrow_reverse_NNYY_horiz_med.png","/wiki/File:Biochem_reaction_arrow_reverse_NNYY_horiz_med.png","//upload.wikimedia.org/wikipedia/commons/thumb/5/56/Biochem_reaction_arrow_reverse_NNYY_horiz_med.png/35px-Biochem_reaction_arrow_reverse_NNYY_horiz_med.png","/wiki/Acetyl-CoA","/wiki/File:Acetyl_co-A_wpmp.png","//upload.wikimedia.org/wikipedia/commons/thumb/e/ed/Acetyl_co-A_wpmp.png/31px-Acetyl_co-A_wpmp.png","/wiki/File:Biochem_reaction_arrow_special_1.png","//upload.wikimedia.org/wikipedia/commons/thumb/c/cc/Biochem_reaction_arrow_special_1.png/35px-Biochem_reaction_arrow_special_1.png","/wiki/File:Biochem_reaction_arrow_special_2.png","//upload.wikimedia.org/wikipedia/commons/thumb/4/43/Biochem_reaction_arrow_special_2.png/35px-Biochem_reaction_arrow_special_2.png","/wiki/Coenzyme_A","/wiki/File:Citrate_wpmp.png","//upload.wikimedia.org/wikipedia/commons/thumb/2/22/Citrate_wpmp.png/31px-Citrate_wpmp.png","/wiki/File:Cis-Aconitate_wpmp.png","//upload.wikimedia.org/wikipedia/commons/thumb/e/eb/Cis-Aconitate_wpmp.png/27px-Cis-Aconitate_wpmp.png","/wiki/File:Threo-Ds-isocitrate_wpmp.png","//upload.wikimedia.org/wikipedia/commons/thumb/3/3a/Threo-Ds-isocitrate_wpmp.png/35px-Threo-Ds-isocitrate_wpmp.png","/wiki/File:Oxalosuccinate_wpmp.png","//upload.wikimedia.org/wikipedia/commons/thumb/1/19/Oxalosuccinate_wpmp.png/31px-Oxalosuccinate_wpmp.png","/wiki/File:2-oxoglutarate_wpmp.svg","//upload.wikimedia.org/wikipedia/commons/thumb/d/d9/2-oxoglutarate_wpmp.svg/24px-2-oxoglutarate_wpmp.svg.png","/wiki/File:Biochem_reaction_arrow_forward_NYNN_horiz_med.png","//upload.wikimedia.org/wikipedia/commons/thumb/d/d3/Biochem_reaction_arrow_forward_NYNN_horiz_med.png/35px-Biochem_reaction_arrow_forward_NYNN_horiz_med.png","/wiki/File:Biochem_reaction_arrow_forward_YNNN_horiz_med.png","//upload.wikimedia.org/wikipedia/commons/thumb/9/92/Biochem_reaction_arrow_forward_YNNN_horiz_med.png/35px-Biochem_reaction_arrow_forward_YNNN_horiz_med.png","/wiki/File:Biochem_reaction_arrow_forward_YYNN_horiz_med.png","//upload.wikimedia.org/wikipedia/commons/thumb/5/5f/Biochem_reaction_arrow_forward_YYNN_horiz_med.png/35px-Biochem_reaction_arrow_forward_YYNN_horiz_med.png","/wiki/File:Biochem_reaction_arrow_forward_NYNN_horiz_med.png","//upload.wikimedia.org/wikipedia/commons/thumb/d/d3/Biochem_reaction_arrow_forward_NYNN_horiz_med.png/35px-Biochem_reaction_arrow_forward_NYNN_horiz_med.png","/wiki/Citrate","/wiki/Isocitric_acid","/wiki/Oxalosuccinic_acid","/wiki/Alpha-Ketoglutaric_acid","/wiki/Template:Medicine_navs","/wiki/Inborn_error_of_metabolism","/wiki/Template:Metabolism","/wiki/Template:Citric_acid_cycle_enzymes_and_ETC","/wiki/Template:Glycolysis_enzymes","/wiki/Template:Glycogenesis_and_glycogenolysis_enzymes","/wiki/Template:Fructose_and_galactose_metabolism_enzymes","/wiki/Template:Pentose_phosphate_pathway_enzymes","/wiki/Template:Glycoprotein_metabolism_enzymes","/wiki/Template:Proteoglycan_metabolism_enzymes","/wiki/Template:Lipid_metabolism_enzymes","/wiki/Template:Phospholipid_metabolism","/wiki/Template:Cholesterol_and_steroid_metabolism_enzymes","/wiki/Template:Lipoprotein_metabolism","/wiki/Template:Glycolipid/sphingolipid_metabolism_enzymes","/wiki/Template:Eicosanoid_metabolism_enzymes","/wiki/Template:Amino_acid_metabolism_enzymes","/wiki/Template:Urea_cycle_enzymes","/wiki/Template:Nucleotide_metabolism_enzymes","/wiki/Template:Porphyrin_metabolism_enzymes","/wiki/Template:Disorders_of_TCA_and_ETC","/wiki/Template:Inborn_errors_of_carbohydrate_metabolism","/wiki/Template:Glycoprotein_disorders","/wiki/Template:Proteoglycan_disorders","/wiki/Template:Fatty-acid_metabolism_disorders","/wiki/Template:Phospholipid_metabolism_disorders","/wiki/Template:Defects_of_cholesterol_and_steroid_metabolism","/wiki/Template:Lipid_metabolism_disorders","/wiki/Template:Lipid_storage_disorders","/wiki/Template:Eicosanoid_metabolism_disorders","/wiki/Template:Amino_acid_metabolic_pathology","/wiki/Template:Inborn_errors_of_purine-pyrimidine_metabolism","/wiki/Template:Heme_metabolism_disorders","/wiki/Template:Eponymous_medical_signs_for_endocrinology,_nutrition,_and_metabolism","/wiki/ATC_code_A16","/wiki/Template:Lipid_modifying_agents","/wiki/Template:Citric_acid_cycle","/wiki/Template:Glycolysis","/wiki/Template:Glycogenesis_and_glycogenolysis_metabolic_intermediates","/wiki/Template:Fructose_and_galactose_metabolic_intermediates","/wiki/Template:Pentose_phosphate_pathway_intermediates","/wiki/Template:Glycoproteins","/wiki/Template:Glycosaminoglycans","/wiki/Template:Fatty-acid_metabolism_intermediates","/wiki/Template:Phospholipids","/wiki/Template:Cholesterol_and_steroid_intermediates","/wiki/Template:Sphingolipids","/wiki/Template:Eicosanoids","/wiki/Template:Amino_acid_metabolism_intermediates","/wiki/Template:Urea_cycle","/wiki/Template:Nucleotide_metabolism_intermediates","/wiki/Template:Heme_metabolism_intermediates","http://en.wikipedia.org/w/index.php?title=Aconitic_acid&oldid=544731746","/wiki/Help:Categories","/wiki/Category:Citric_acid_cycle","/wiki/Category:Tricarboxylic_acids","/w/index.php?title=Special:UserLogin&returnto=Aconitic+acid&type=signup","/w/index.php?title=Special:UserLogin&returnto=Aconitic+acid","/wiki/Aconitic_acid","/wiki/Talk:Aconitic_acid","#","/wiki/Aconitic_acid","/w/index.php?title=Aconitic_acid&action=edit","/w/index.php?title=Aconitic_acid&action=history","#","/w/index.php","//bits.wikimedia.org/static-1.22wmf9/skins/vector/images/search-ltr.png?303-4","/wiki/Main_Page","/wiki/Main_Page","/wiki/Portal:Contents","/wiki/Portal:Featured_content","/wiki/Portal:Current_events","/wiki/Special:Random","//donate.wikimedia.org/wiki/Special:FundraiserRedirector?utm_source=donate&utm_medium=sidebar&utm_campaign=C13_en.wikipedia.org&uselang=en","/wiki/Help:Contents","/wiki/Wikipedia:About","/wiki/Wikipedia:Community_portal","/wiki/Special:RecentChanges","//en.wikipedia.org/wiki/Wikipedia:Contact_us","/wiki/Special:WhatLinksHere/Aconitic_acid","/wiki/Special:RecentChangesLinked/Aconitic_acid","/wiki/Wikipedia:File_Upload_Wizard","/wiki/Special:SpecialPages","/w/index.php?title=Aconitic_acid&oldid=544731746","/w/index.php?title=Aconitic_acid&action=info","//www.wikidata.org/wiki/Q288782","/w/index.php?title=Special:Cite&page=Aconitic_acid&id=544731746","/w/index.php?title=Special:Book&bookcmd=book_creator&referer=Aconitic+acid","/w/index.php?title=Special:Book&bookcmd=render_article&arttitle=Aconitic+acid&oldid=544731746&writer=rl","/w/index.php?title=Aconitic_acid&printable=yes","//cs.wikipedia.org/wiki/Kyselina_akonitov%C3%A1","//de.wikipedia.org/wiki/Aconits%C3%A4ure","//es.wikipedia.org/wiki/%C3%81cido_acon%C3%ADtico","//fa.wikipedia.org/wiki/%D8%A2%DA%A9%D9%88%D9%86%DB%8C%D8%AA%DB%8C%DA%A9_%D8%A7%D8%B3%DB%8C%D8%AF","//fr.wikipedia.org/wiki/Acide_aconitique","//it.wikipedia.org/wiki/Acido_aconitico","//lv.wikipedia.org/wiki/Akon%C4%ABtsk%C4%81be","//hu.wikipedia.org/wiki/Akonitsav","//ml.wikipedia.org/wiki/%E0%B4%85%E0%B4%95%E0%B5%8D%E0%B4%95%E0%B5%8B%E0%B4%A3%E0%B4%BF%E0%B4%B1%E0%B5%8D%E0%B4%B1%E0%B4%BF%E0%B4%95%E0%B5%8D_%E0%B4%85%E0%B4%AE%E0%B5%8D%E0%B4%B2%E0%B4%82","//ja.wikipedia.org/wiki/%E3%82%A2%E3%82%B3%E3%83%8B%E3%83%83%E3%83%88%E9%85%B8","//pt.wikipedia.org/wiki/Aconitato_(substrato)","//ro.wikipedia.org/wiki/Acid_aconitic","//ru.wikipedia.org/wiki/%D0%90%D0%BA%D0%BE%D0%BD%D0%B8%D1%82%D0%BE%D0%B2%D0%B0%D1%8F_%D0%BA%D0%B8%D1%81%D0%BB%D0%BE%D1%82%D0%B0","//zh.wikipedia.org/wiki/%E4%B9%8C%E5%A4%B4%E9%85%B8","#","//www.wikidata.org/wiki/Q288782#sitelinks-wikipedia","//en.wikipedia.org/wiki/Wikipedia:Text_of_Creative_Commons_Attribution-ShareAlike_3.0_Unported_License","//creativecommons.org/licenses/by-sa/3.0/","//wikimediafoundation.org/wiki/Terms_of_Use","//wikimediafoundation.org/wiki/Privacy_policy","//www.wikimediafoundation.org/","//wikimediafoundation.org/wiki/Privacy_policy","/wiki/Wikipedia:About","/wiki/Wikipedia:General_disclaimer","//en.wikipedia.org/wiki/Wikipedia:Contact_us","//en.m.wikipedia.org/wiki/Aconitic_acid","//wikimediafoundation.org/","//bits.wikimedia.org/images/wikimedia-button.png","//www.mediawiki.org/","//bits.wikimedia.org/static-1.22wmf9/skins/common/images/poweredby_mediawiki_88x31.png","//bits.wikimedia.org/en.wikipedia.org/load.php?debug=false&lang=en&modules=site&only=scripts&skin=vector&*"],"instances":[],"pdf":[],"categories":["Tricarboxylic acids"],"headings":["References"],"image":["//upload.wikimedia.org/wikipedia/commons/thumb/e/e1/Cis-aconitic_acid.png/200px-Cis-aconitic_acid.png","//upload.wikimedia.org/wikipedia/commons/thumb/7/73/Trans-aconitic_acid.png/200px-Trans-aconitic_acid.png","//upload.wikimedia.org/wikipedia/en/thumb/f/fb/Yes_check.svg/7px-Yes_check.svg.png","//upload.wikimedia.org/wikipedia/en/thumb/f/fb/Yes_check.svg/7px-Yes_check.svg.png","//upload.wikimedia.org/wikipedia/en/thumb/f/fb/Yes_check.svg/7px-Yes_check.svg.png","//upload.wikimedia.org/wikipedia/en/thumb/f/fb/Yes_check.svg/7px-Yes_check.svg.png","//upload.wikimedia.org/wikipedia/en/thumb/f/fb/Yes_check.svg/7px-Yes_check.svg.png","//upload.wikimedia.org/wikipedia/en/thumb/f/fb/Yes_check.svg/7px-Yes_check.svg.png","//upload.wikimedia.org/wikipedia/en/thumb/f/fb/Yes_check.svg/14px-Yes_check.svg.png","//upload.wikimedia.org/wikipedia/en/thumb/f/fb/Yes_check.svg/10px-Yes_check.svg.png","//upload.wikimedia.org/wikipedia/commons/thumb/a/a2/X_mark.svg/10px-X_mark.svg.png","//upload.wikimedia.org/wikipedia/commons/thumb/c/c8/Oxaloacetate_wpmp.png/24px-Oxaloacetate_wpmp.png","//upload.wikimedia.org/wikipedia/commons/thumb/e/e3/S-malate_wpmp.png/27px-S-malate_wpmp.png","//upload.wikimedia.org/wikipedia/commons/thumb/7/70/Fumarate_wpmp.png/24px-Fumarate_wpmp.png","//upload.wikimedia.org/wikipedia/commons/thumb/5/5a/Succinate_wpmp.png/24px-Succinate_wpmp.png","//upload.wikimedia.org/wikipedia/commons/thumb/d/db/Succinyl-CoA_wpmp.png/24px-Succinyl-CoA_wpmp.png","//upload.wikimedia.org/wikipedia/commons/thumb/5/56/Biochem_reaction_arrow_reverse_NNYY_horiz_med.png/35px-Biochem_reaction_arrow_reverse_NNYY_horiz_med.png","//upload.wikimedia.org/wikipedia/commons/thumb/d/d5/Biochem_reaction_arrow_reverse_NNYN_horiz_med.png/35px-Biochem_reaction_arrow_reverse_NNYN_horiz_med.png","//upload.wikimedia.org/wikipedia/commons/thumb/5/56/Biochem_reaction_arrow_reverse_NNYY_horiz_med.png/35px-Biochem_reaction_arrow_reverse_NNYY_horiz_med.png","//upload.wikimedia.org/wikipedia/commons/thumb/5/56/Biochem_reaction_arrow_reverse_NNYY_horiz_med.png/35px-Biochem_reaction_arrow_reverse_NNYY_horiz_med.png","//upload.wikimedia.org/wikipedia/commons/thumb/e/ed/Acetyl_co-A_wpmp.png/31px-Acetyl_co-A_wpmp.png","//upload.wikimedia.org/wikipedia/commons/thumb/c/cc/Biochem_reaction_arrow_special_1.png/35px-Biochem_reaction_arrow_special_1.png","//upload.wikimedia.org/wikipedia/commons/thumb/4/43/Biochem_reaction_arrow_special_2.png/35px-Biochem_reaction_arrow_special_2.png","//upload.wikimedia.org/wikipedia/commons/thumb/2/22/Citrate_wpmp.png/31px-Citrate_wpmp.png","//upload.wikimedia.org/wikipedia/commons/thumb/e/eb/Cis-Aconitate_wpmp.png/27px-Cis-Aconitate_wpmp.png","//upload.wikimedia.org/wikipedia/commons/thumb/3/3a/Threo-Ds-isocitrate_wpmp.png/35px-Threo-Ds-isocitrate_wpmp.png","//upload.wikimedia.org/wikipedia/commons/thumb/1/19/Oxalosuccinate_wpmp.png/31px-Oxalosuccinate_wpmp.png","//upload.wikimedia.org/wikipedia/commons/thumb/d/d9/2-oxoglutarate_wpmp.svg/24px-2-oxoglutarate_wpmp.svg.png","//upload.wikimedia.org/wikipedia/commons/thumb/d/d3/Biochem_reaction_arrow_forward_NYNN_horiz_med.png/35px-Biochem_reaction_arrow_forward_NYNN_horiz_med.png","//upload.wikimedia.org/wikipedia/commons/thumb/9/92/Biochem_reaction_arrow_forward_YNNN_horiz_med.png/35px-Biochem_reaction_arrow_forward_YNNN_horiz_med.png","//upload.wikimedia.org/wikipedia/commons/thumb/5/5f/Biochem_reaction_arrow_forward_YYNN_horiz_med.png/35px-Biochem_reaction_arrow_forward_YYNN_horiz_med.png","//upload.wikimedia.org/wikipedia/commons/thumb/d/d3/Biochem_reaction_arrow_forward_NYNN_horiz_med.png/35px-Biochem_reaction_arrow_forward_NYNN_horiz_med.png","//bits.wikimedia.org/static-1.22wmf9/skins/vector/images/search-ltr.png?303-4","//bits.wikimedia.org/images/wikimedia-button.png","//bits.wikimedia.org/static-1.22wmf9/skins/common/images/poweredby_mediawiki_88x31.png"],"tags":[],"members":[],"related":["Cis-trans_isomerism","Conjugate_base","Isomer","Citrate","Isocitrate","Citric_acid_cycle","Aconitase","Citric_acid","Sulfuric_acid"]}