{"cursor":"2131","size":15,"audio":[],"currentlang":"en","article":"\n{{chembox |Name=cis-3-Hexenal |ImageFile=cis-3-hexenal_chemical_structure.png\n|ImageSize=150px |IUPACName=(Z)-Hex-3-enal |OtherNames=Leaf aldehyde |Section1=\n{{Chembox Identifiers\n|  ChemSpiderID = 559032 InChI = 1/C6H10O/c1-2-3-4-5-6-7/h3-4,6H,2,5H2,1H3/b4-3-\n|  InChIKey = GXANMBISFKBPEX-ARJAWSKDBM CASNo=6789-80-6 PubChem=643941 UNII =\n|  6V54TKA96C SMILES = O=CC\\C=C/CC\n}} |Section2= {{Chembox Properties\n|  Formula=C 6H 10 O MolarMass=98.14 g/mol Appearance=\n|  Density=0.851 g/cm3 MeltingPt= BoilingPt=126 °C Solubility=\n  }} |Section3= {{Chembox Related\n|  Function = alkenals OtherFunctn = Acrolein\nCrotonaldehyde (''E'',''E'')-2,4-Decadienal }} }}\n\n'cis-3-Hexenal', also known as '(Z)-3-hexenal' and 'leaf aldehyde', is\ncolorless liquid and an aroma compound with an intense grassy-green odor of\nfreshly cut green grass and leaves. It is one of the major volatile compounds\nin ripe tomatoes. It is produced in small amounts by most plants and it acts\nas an attractant to many predatory insects. It is also a pheromone in many\ninsect species.\n\ncis-3-Hexenal is an aldehyde. It is relatively unstable and isomerizes into the\nconjugated trans-2-hexenal. The related alcohol ''cis''-3-hexen-1-ol is much\nmore stable. It has a similar but weaker smell and is widely used in flavors\nand perfumes.\n","linknr":130,"url":"Cis-3-Hexenal","recorded":1374542391,"links":["/w/index.php?title=Cis-3-Hexenal&action=edit","/w/index.php?title=Cis-3-Hexenal&action=edit","//bits.wikimedia.org/favicon/wikipedia.ico","/w/opensearch_desc.php","//en.wikipedia.org/w/api.php?action=rsd","//creativecommons.org/licenses/by-sa/3.0/","/w/index.php?title=Special:RecentChanges&feed=atom","//bits.wikimedia.org/en.wikipedia.org/load.php?debug=false&lang=en&modules=ext.gadget.DRN-wizard%2CReferenceTooltips%2Ccharinsert%2Cteahouse%7Cext.rtlcite%2Cwikihiero%7Cext.uls.nojs%7Cmediawiki.legacy.commonPrint%2Cshared%7Cmw.PopUpMediaTransform%7Cskins.vector&only=styles&skin=vector&*","//bits.wikimedia.org/en.wikipedia.org/load.php?debug=false&lang=en&modules=site&only=styles&skin=vector&*","//bits.wikimedia.org/en.wikipedia.org/load.php?debug=false&lang=en&modules=startup&only=scripts&skin=vector&*","//bits.wikimedia.org/geoiplookup","//meta.wikimedia.org","#mw-navigation","#p-search","/wiki/File:Cis-3-hexenal_chemical_structure.png","//upload.wikimedia.org/wikipedia/commons/thumb/2/27/Cis-3-hexenal_chemical_structure.png/150px-Cis-3-hexenal_chemical_structure.png","/wiki/International_Union_of_Pure_and_Applied_Chemistry_nomenclature","/wiki/CAS_registry_number","http://www.commonchemistry.org/ChemicalDetail.aspx?ref=6789-80-6","/wiki/PubChem","http://pubchem.ncbi.nlm.nih.gov/summary/summary.cgi?cid=643941","/wiki/ChemSpider","http://www.chemspider.com/559032","/wiki/Unique_Ingredient_Identifier","http://fdasis.nlm.nih.gov/srs/srsdirect.jsp?regno=6V54TKA96C","/wiki/Jmol","http://chemapps.stolaf.edu/jmol/jmol.php?model=O%3DCC%5CC%3DC%2FCC","/wiki/Simplified_molecular-input_line-entry_system","/wiki/International_Chemical_Identifier","/wiki/Chemical_formula","/wiki/Molar_mass","/wiki/Density","/wiki/Boiling_point","/wiki/Acrolein","/wiki/Crotonaldehyde","/wiki/(E,E)-2,4-decadienal","/wiki/Standard_state","/wiki/Wikipedia:Chemical_infobox#References","/wiki/Aroma_compound","/wiki/Grass","/wiki/Odor","/wiki/Leaf","/wiki/Tomato","/wiki/Plant","/w/index.php?title=Attractant&action=edit&redlink=1","/wiki/Predator","/wiki/Insect","/wiki/Pheromone","/wiki/Aldehyde","/wiki/Isomerization","/wiki/Conjugated_system","/wiki/Alcohol","/wiki/Cis-3-Hexen-1-ol","/wiki/Flavor","/wiki/Perfume","/w/index.php?title=Cis-3-Hexenal&action=edit&section=1","/wiki/1-Hexanol","/w/index.php?title=Cis-3-Hexenal&action=edit&section=2","/w/index.php?title=Cis-3-Hexenal&action=edit&section=3","http://www.pherobase.com/database/compound/compounds-detail-Z3-6Ald.php","http://www.chm.bris.ac.uk/motm/hexenal/hexenalh.htm","/wiki/File:Ethylene-3D-vdW.png","//upload.wikimedia.org/wikipedia/commons/thumb/c/c3/Ethylene-3D-vdW.png/39px-Ethylene-3D-vdW.png","/wiki/Alkene","/wiki/Wikipedia:Stub","//en.wikipedia.org/w/index.php?title=Cis-3-Hexenal&action=edit","/wiki/Template:Alkene-stub","/wiki/Template_talk:Alkene-stub","//en.wikipedia.org/w/index.php?title=Template:Alkene-stub&action=edit","//en.wikipedia.org/w/index.php?title=Special:CentralAutoLogin/start&type=1x1&from=enwiki","http://en.wikipedia.org/w/index.php?title=Cis-3-Hexenal&oldid=543993837","/wiki/Help:Categories","/wiki/Category:Flavors","/wiki/Category:Insect_pheromones","/wiki/Category:Insect_ecology","/wiki/Category:Aldehydes","/wiki/Category:Alkenes","/wiki/Category:Alkene_stubs","/wiki/Category:Articles_containing_unverified_chemical_infoboxes","/w/index.php?title=Special:UserLogin&returnto=Cis-3-Hexenal&type=signup","/w/index.php?title=Special:UserLogin&returnto=Cis-3-Hexenal","/wiki/Cis-3-Hexenal","/wiki/Talk:Cis-3-Hexenal","#","/wiki/Cis-3-Hexenal","/w/index.php?title=Cis-3-Hexenal&action=edit","/w/index.php?title=Cis-3-Hexenal&action=history","#","/w/index.php","//bits.wikimedia.org/static-1.22wmf10/skins/vector/images/search-ltr.png?303-4","/wiki/Main_Page","/wiki/Main_Page","/wiki/Portal:Contents","/wiki/Portal:Featured_content","/wiki/Portal:Current_events","/wiki/Special:Random","//donate.wikimedia.org/wiki/Special:FundraiserRedirector?utm_source=donate&utm_medium=sidebar&utm_campaign=C13_en.wikipedia.org&uselang=en","/wiki/Help:Contents","/wiki/Wikipedia:About","/wiki/Wikipedia:Community_portal","/wiki/Special:RecentChanges","//en.wikipedia.org/wiki/Wikipedia:Contact_us","/wiki/Special:WhatLinksHere/Cis-3-Hexenal","/wiki/Special:RecentChangesLinked/Cis-3-Hexenal","/wiki/Wikipedia:File_Upload_Wizard","/wiki/Special:SpecialPages","/w/index.php?title=Cis-3-Hexenal&oldid=543993837","/w/index.php?title=Cis-3-Hexenal&action=info","//www.wikidata.org/wiki/Q158587","/w/index.php?title=Special:Cite&page=Cis-3-Hexenal&id=543993837","/w/index.php?title=Special:Book&bookcmd=book_creator&referer=Cis-3-Hexenal","/w/index.php?title=Special:Book&bookcmd=render_article&arttitle=Cis-3-Hexenal&oldid=543993837&writer=rl","/w/index.php?title=Cis-3-Hexenal&printable=yes","//de.wikipedia.org/wiki/(Z)-3-Hexenal","#","//www.wikidata.org/wiki/Q158587#sitelinks-wikipedia","//en.wikipedia.org/wiki/Wikipedia:Text_of_Creative_Commons_Attribution-ShareAlike_3.0_Unported_License","//creativecommons.org/licenses/by-sa/3.0/","//wikimediafoundation.org/wiki/Terms_of_Use","//wikimediafoundation.org/wiki/Privacy_policy","//www.wikimediafoundation.org/","//wikimediafoundation.org/wiki/Privacy_policy","/wiki/Wikipedia:About","/wiki/Wikipedia:General_disclaimer","//en.wikipedia.org/wiki/Wikipedia:Contact_us","//en.m.wikipedia.org/wiki/Cis-3-Hexenal","//wikimediafoundation.org/","//bits.wikimedia.org/images/wikimedia-button.png","//www.mediawiki.org/","//bits.wikimedia.org/static-1.22wmf10/skins/common/images/poweredby_mediawiki_88x31.png","//bits.wikimedia.org/en.wikipedia.org/load.php?debug=false&lang=en&modules=site&only=scripts&skin=vector&*"],"instances":[],"pdf":[],"categories":["Flavors","Insect pheromones","Insect ecology","Aldehydes","Alkenes"],"headings":["See also","References","External links"],"image":["//upload.wikimedia.org/wikipedia/commons/thumb/2/27/Cis-3-hexenal_chemical_structure.png/150px-Cis-3-hexenal_chemical_structure.png","//upload.wikimedia.org/wikipedia/commons/thumb/c/c3/Ethylene-3D-vdW.png/39px-Ethylene-3D-vdW.png","//en.wikipedia.org/w/index.php?title=Special:CentralAutoLogin/start&type=1x1&from=enwiki","//bits.wikimedia.org/static-1.22wmf10/skins/vector/images/search-ltr.png?303-4","//bits.wikimedia.org/images/wikimedia-button.png","//bits.wikimedia.org/static-1.22wmf10/skins/common/images/poweredby_mediawiki_88x31.png"],"tags":[["(e,e-2,4-decadienal"]],"members":[],"related":["Acrolein","Crotonaldehyde","(E,E)-2,4-decadienal","Aroma_compound","Grass","Odor","Leaf","Tomato","Plant","Attractant","Predator","Insect","Pheromone","Aldehyde","Isomerization","Conjugated_system","Alcohol","Cis-3-Hexen-1-ol","Flavor","Perfume","1-Hexanol"]}