{"cursor":"2711","size":15,"audio":[],"currentlang":"en","article":"{{chembox\n| Verifiedfields = changed Watchedfields = changed verifiedrevid = 389428269\n| Name = Cordycepin ImageFile = cordycepin.svg ImageSize = 200px ImageName =\n| IUPACName = 9-(3-Deoxy-β-D-ribofuranosyl)adenine OtherNames = Cordycepine 3'-Deoxyadenosine Section1 = {{Chembox Identifiers CASNo_Ref = CASNo = 73-03-\n| 3 SMILES = O[C@@H]1C[C@@H](CO)O[C@H]1N2C(N=CN=C3N)=C3N=C2 PubChem = 6303\n| ChEMBL_Ref = ChEMBL = 305686 ChemSpiderID_Ref = ChemSpiderID = 6064 SMILES =\n| n2c1c(ncnc1n(c2)[C@@H]3O[C@@H](C[C@H]3O)CO)N StdInChI_Ref = StdInChI=1S/C10H13N5O3/c11-8-7-9(13-3-12-8)15(4-14-7)10-6(17)1-5(2-16)18-\n| 10/h3-6,10,16-17H,1-2H2,(H2,11,12,13)/t5-,6+,10+/m0/s1 StdInChIKey_Ref =\n| StdInChIKey = OFEZSBMBBKLLBJ-BAJZRUMYSA-N\n  }}\n| Section2 = {{Chembox Properties C=10|H=13|N=5|O=3 Density = MeltingPtC = 225.5\n  }} }}\n\n'Cordycepin', or '3'-deoxyadenosine', is a derivative of the nucleoside\nadenosine, differing from the latter by the absence of oxygen in the 3' position\nof its ribose part. It was initially extracted from fungi of genus\n[[Cordyceps]], but is now produced synthetically.\n\nBecause cordycepin is similar to adenosine, some enzymes cannot discriminate\nbetween the two. Therefore, it can participate in certain biochemical reactions\n(for example, be incorporated into an RNA molecule, thus causing the premature\ntermination of its synthesis). \n","linknr":138,"url":"Cordycepin","recorded":1374544099,"links":["/w/index.php?title=Cordycepin&action=edit","/w/index.php?title=Cordycepin&action=edit","//bits.wikimedia.org/favicon/wikipedia.ico","/w/opensearch_desc.php","//en.wikipedia.org/w/api.php?action=rsd","//creativecommons.org/licenses/by-sa/3.0/","/w/index.php?title=Special:RecentChanges&feed=atom","//bits.wikimedia.org/en.wikipedia.org/load.php?debug=false&lang=en&modules=ext.gadget.DRN-wizard%2CReferenceTooltips%2Ccharinsert%2Cteahouse%7Cext.rtlcite%2Cwikihiero%7Cext.uls.nojs%7Cmediawiki.legacy.commonPrint%2Cshared%7Cmw.PopUpMediaTransform%7Cskins.vector&only=styles&skin=vector&*","//bits.wikimedia.org/en.wikipedia.org/load.php?debug=false&lang=en&modules=site&only=styles&skin=vector&*","//bits.wikimedia.org/en.wikipedia.org/load.php?debug=false&lang=en&modules=startup&only=scripts&skin=vector&*","//bits.wikimedia.org/geoiplookup","//meta.wikimedia.org","#mw-navigation","#p-search","/wiki/File:Cordycepin.svg","//upload.wikimedia.org/wikipedia/commons/thumb/6/6d/Cordycepin.svg/200px-Cordycepin.svg.png","/wiki/International_Union_of_Pure_and_Applied_Chemistry_nomenclature","/wiki/CAS_registry_number","http://www.commonchemistry.org/ChemicalDetail.aspx?ref=73-03-3","//upload.wikimedia.org/wikipedia/en/thumb/f/fb/Yes_check.svg/7px-Yes_check.svg.png","/wiki/PubChem","http://pubchem.ncbi.nlm.nih.gov/summary/summary.cgi?cid=6303","/wiki/ChemSpider","http://www.chemspider.com/6064","//upload.wikimedia.org/wikipedia/commons/thumb/a/a2/X_mark.svg/7px-X_mark.svg.png","/wiki/ChEMBL","https://www.ebi.ac.uk/chembldb/index.php/compound/inspect/CHEMBL305686","//upload.wikimedia.org/wikipedia/commons/thumb/a/a2/X_mark.svg/7px-X_mark.svg.png","/wiki/Jmol","http://chemapps.stolaf.edu/jmol/jmol.php?model=n2c1c%28ncnc1n%28c2%29%5BC%40%40H%5D3O%5BC%40%40H%5D%28C%5BC%40H%5D3O%29CO%29N","/wiki/Simplified_molecular-input_line-entry_system","/wiki/International_Chemical_Identifier","//upload.wikimedia.org/wikipedia/commons/thumb/a/a2/X_mark.svg/7px-X_mark.svg.png","//upload.wikimedia.org/wikipedia/commons/thumb/a/a2/X_mark.svg/7px-X_mark.svg.png","/wiki/Molecular_formula","/wiki/Molar_mass","/wiki/Melting_point","//upload.wikimedia.org/wikipedia/commons/thumb/a/a2/X_mark.svg/14px-X_mark.svg.png","//en.wikipedia.org/w/index.php?title=Special:ComparePages&rev1=389428269&page2=Cordycepin","/wiki/Wikipedia:WikiProject_Chemicals/Chembox_validation","//upload.wikimedia.org/wikipedia/en/thumb/f/fb/Yes_check.svg/10px-Yes_check.svg.png","//upload.wikimedia.org/wikipedia/commons/thumb/a/a2/X_mark.svg/10px-X_mark.svg.png","/wiki/Standard_state","/wiki/Wikipedia:Chemical_infobox#References","/wiki/Derivative_(chemistry)","/wiki/Nucleoside","/wiki/Adenosine","/wiki/Oxygen","/wiki/Nucleic_acid_nomenclature","/wiki/Ribose","/wiki/Fungi","/wiki/Cordyceps","/wiki/Enzyme","/wiki/RNA","#cite_note-1","#cite_note-pmid23118416-2","/w/index.php?title=Cordycepin&action=edit&section=1","/wiki/Deoxyadenosine","/w/index.php?title=Cordycepin&action=edit&section=2","#cite_ref-1","http://www.jcb.org/cgi/reprint/41/2/510","/wiki/Digital_object_identifier","http://dx.doi.org/10.1083%2Fjcb.41.2.510","/wiki/PubMed_Central","//www.ncbi.nlm.nih.gov/pmc/articles/PMC2107749","/wiki/PubMed_Identifier","//www.ncbi.nlm.nih.gov/pubmed/5783871","#cite_ref-pmid23118416_2-0","http://www.ncbi.nlm.nih.gov/entrez/eutils/elink.fcgi?dbfrom=pubmed&tool=sumsearch.org/cite&retmode=ref&cmd=prlinks&id=23118416","/wiki/Digital_object_identifier","http://dx.doi.org/10.1261%2Frna.032391.112","/wiki/PubMed_Identifier","//www.ncbi.nlm.nih.gov/pubmed/23118416","//en.wikipedia.org/w/index.php?title=Special:CentralAutoLogin/start&type=1x1&from=enwiki","http://en.wikipedia.org/w/index.php?title=Cordycepin&oldid=547804300","/wiki/Help:Categories","/wiki/Category:Alkaloids","/wiki/Category:Nucleosides","/wiki/Category:Chemical_compounds_found_in_Ascomycota","/wiki/Category:Alkaloids_found_in_fungi","/wiki/Category:Articles_with_changed_ChemSpider_identifier","/wiki/Category:Articles_with_changed_EBI_identifier","/wiki/Category:Chemboxes_which_contain_changes_to_verified_fields","/wiki/Category:Chemboxes_which_contain_changes_to_watched_fields","/w/index.php?title=Special:UserLogin&returnto=Cordycepin&type=signup","/w/index.php?title=Special:UserLogin&returnto=Cordycepin","/wiki/Cordycepin","/wiki/Talk:Cordycepin","#","/wiki/Cordycepin","/w/index.php?title=Cordycepin&action=edit","/w/index.php?title=Cordycepin&action=history","#","/w/index.php","//bits.wikimedia.org/static-1.22wmf10/skins/vector/images/search-ltr.png?303-4","/wiki/Main_Page","/wiki/Main_Page","/wiki/Portal:Contents","/wiki/Portal:Featured_content","/wiki/Portal:Current_events","/wiki/Special:Random","//donate.wikimedia.org/wiki/Special:FundraiserRedirector?utm_source=donate&utm_medium=sidebar&utm_campaign=C13_en.wikipedia.org&uselang=en","/wiki/Help:Contents","/wiki/Wikipedia:About","/wiki/Wikipedia:Community_portal","/wiki/Special:RecentChanges","//en.wikipedia.org/wiki/Wikipedia:Contact_us","/wiki/Special:WhatLinksHere/Cordycepin","/wiki/Special:RecentChangesLinked/Cordycepin","/wiki/Wikipedia:File_Upload_Wizard","/wiki/Special:SpecialPages","/w/index.php?title=Cordycepin&oldid=547804300","/w/index.php?title=Cordycepin&action=info","//www.wikidata.org/wiki/Q2256677","/w/index.php?title=Special:Cite&page=Cordycepin&id=547804300","/w/index.php?title=Special:Book&bookcmd=book_creator&referer=Cordycepin","/w/index.php?title=Special:Book&bookcmd=render_article&arttitle=Cordycepin&oldid=547804300&writer=rl","/w/index.php?title=Cordycepin&printable=yes","//es.wikipedia.org/wiki/Cordicepina","//fa.wikipedia.org/wiki/%DA%A9%D9%88%D8%B1%D8%AF%DB%8C%D8%B3%D9%BE%DB%8C%D9%86","//it.wikipedia.org/wiki/Cordicepina","//ja.wikipedia.org/wiki/%E3%82%B3%E3%83%AB%E3%82%B8%E3%82%BB%E3%83%94%E3%83%B3","#","//www.wikidata.org/wiki/Q2256677#sitelinks-wikipedia","//en.wikipedia.org/wiki/Wikipedia:Text_of_Creative_Commons_Attribution-ShareAlike_3.0_Unported_License","//creativecommons.org/licenses/by-sa/3.0/","//wikimediafoundation.org/wiki/Terms_of_Use","//wikimediafoundation.org/wiki/Privacy_policy","//www.wikimediafoundation.org/","//wikimediafoundation.org/wiki/Privacy_policy","/wiki/Wikipedia:About","/wiki/Wikipedia:General_disclaimer","//en.wikipedia.org/wiki/Wikipedia:Contact_us","//en.m.wikipedia.org/wiki/Cordycepin","//wikimediafoundation.org/","//bits.wikimedia.org/images/wikimedia-button.png","//www.mediawiki.org/","//bits.wikimedia.org/static-1.22wmf10/skins/common/images/poweredby_mediawiki_88x31.png","//bits.wikimedia.org/en.wikipedia.org/load.php?debug=false&lang=en&modules=site&only=scripts&skin=vector&*"],"instances":["chemistry"],"pdf":[],"categories":["Alkaloids","Nucleosides","Chemical compounds found in Ascomycota","Alkaloids found in fungi"],"headings":["See also","References"],"image":["//upload.wikimedia.org/wikipedia/commons/thumb/6/6d/Cordycepin.svg/200px-Cordycepin.svg.png","//upload.wikimedia.org/wikipedia/en/thumb/f/fb/Yes_check.svg/7px-Yes_check.svg.png","//upload.wikimedia.org/wikipedia/commons/thumb/a/a2/X_mark.svg/7px-X_mark.svg.png","//upload.wikimedia.org/wikipedia/commons/thumb/a/a2/X_mark.svg/7px-X_mark.svg.png","//upload.wikimedia.org/wikipedia/commons/thumb/a/a2/X_mark.svg/7px-X_mark.svg.png","//upload.wikimedia.org/wikipedia/commons/thumb/a/a2/X_mark.svg/7px-X_mark.svg.png","//upload.wikimedia.org/wikipedia/commons/thumb/a/a2/X_mark.svg/14px-X_mark.svg.png","//upload.wikimedia.org/wikipedia/en/thumb/f/fb/Yes_check.svg/10px-Yes_check.svg.png","//upload.wikimedia.org/wikipedia/commons/thumb/a/a2/X_mark.svg/10px-X_mark.svg.png","//en.wikipedia.org/w/index.php?title=Special:CentralAutoLogin/start&type=1x1&from=enwiki","//bits.wikimedia.org/static-1.22wmf10/skins/vector/images/search-ltr.png?303-4","//bits.wikimedia.org/images/wikimedia-button.png","//bits.wikimedia.org/static-1.22wmf10/skins/common/images/poweredby_mediawiki_88x31.png"],"tags":[["derivative","chemistry"]],"members":["derivative"],"related":["Derivative_(chemistry)","Nucleoside","Adenosine","Oxygen","Nucleic_acid_nomenclature","Ribose","Fungi","Enzyme","RNA","Deoxyadenosine"]}