{"cursor":"1296","size":15,"audio":[],"currentlang":"en","article":"\n\n{{chembox\n|   Name = 2-Cyanoacetamide ImageFile = Cyanoacetamide.svg ImageSize = 150px\n|   IUPACName = 2-Cyanoacetamide OtherNames = Malonamide nitrile 3-\n|   Nitrilopropionamide Section1 = {{Chembox Identifiers ChemSpiderID_Ref =\n|   ChemSpiderID = 7610 InChI = InChIKey = SMILES = N#CCC(=O)N ChEMBL_Ref =\n|   ChEMBL = StdInChI_Ref = StdInChI = 1S/C3H4N2O/c4-2-1-3(5)6/h1H2,(H2,5,6)\n|   StdInChIKey_Ref = StdInChIKey = DGJMPUGMZIKDRO-UHFFFAOYSA-N CASNo = 107-95-1\n|   CASNo_Ref = RTECS = UNNumber = EINECSNo = 203-531-8 KEGG_Ref = KEGG =\n  }}\n| Section2 = {{Chembox Properties C=3|H=4|N=2|O=1 Density = 1.163\n| g/cm 3 MeltingPtCL = 119 MeltingPtCH = 121 BoilingPtC = 351.2\n  }}\n| Section7 = {{Chembox Hazards ExternalMSDS = [ EUClass = EUIndex = Not listed\n| RPhrases = SPhrases = MainHazards = NFPA-H = NFPA-F = NFPA-R = NFPA-O =\n  }}| Section8 = {{Chembox Related\n| OtherCpds =\n  }} }}\n\n'2-Cyanoacetamide' is a chemical compound with the molecular formula\nC 3H 4N 2O.\n","linknr":116,"url":"Cyanoacetamide","recorded":1374545012,"links":["/w/index.php?title=Cyanoacetamide&action=edit","/w/index.php?title=Cyanoacetamide&action=edit","//bits.wikimedia.org/favicon/wikipedia.ico","/w/opensearch_desc.php","//en.wikipedia.org/w/api.php?action=rsd","//creativecommons.org/licenses/by-sa/3.0/","/w/index.php?title=Special:RecentChanges&feed=atom","//bits.wikimedia.org/en.wikipedia.org/load.php?debug=false&lang=en&modules=ext.gadget.DRN-wizard%2CReferenceTooltips%2Ccharinsert%2Cteahouse%7Cext.rtlcite%2Cwikihiero%7Cext.uls.nojs%7Cmediawiki.legacy.commonPrint%2Cshared%7Cmw.PopUpMediaTransform%7Cskins.vector&only=styles&skin=vector&*","//bits.wikimedia.org/en.wikipedia.org/load.php?debug=false&lang=en&modules=site&only=styles&skin=vector&*","//bits.wikimedia.org/en.wikipedia.org/load.php?debug=false&lang=en&modules=startup&only=scripts&skin=vector&*","//bits.wikimedia.org/geoiplookup","//meta.wikimedia.org","#mw-navigation","#p-search","/wiki/File:Question_book-new.svg","//upload.wikimedia.org/wikipedia/en/thumb/9/99/Question_book-new.svg/50px-Question_book-new.svg.png","/wiki/Wikipedia:Citing_sources","/wiki/Wikipedia:Verifiability","//en.wikipedia.org/w/index.php?title=Cyanoacetamide&action=edit","/wiki/Help:Introduction_to_referencing/1","/wiki/Wikipedia:Verifiability#Burden_of_evidence","/wiki/File:Cyanoacetamide.svg","//upload.wikimedia.org/wikipedia/commons/thumb/9/92/Cyanoacetamide.svg/150px-Cyanoacetamide.svg.png","/wiki/International_Union_of_Pure_and_Applied_Chemistry_nomenclature","/wiki/CAS_registry_number","http://www.commonchemistry.org/ChemicalDetail.aspx?ref=107-95-1","/wiki/ChemSpider","http://www.chemspider.com/7610","/wiki/Jmol","http://chemapps.stolaf.edu/jmol/jmol.php?model=N%23CCC%28%3DO%29N","/wiki/Simplified_molecular-input_line-entry_system","/wiki/International_Chemical_Identifier","/wiki/Molecular_formula","/wiki/Molar_mass","/wiki/Density","/wiki/Melting_point","/wiki/Boiling_point","/wiki/MSDS","/wiki/List_of_R-phrases","/wiki/R8:_Contact_with_combustible_material_may_cause_fire","/wiki/R23/24/25:_Toxic_by_inhalation,_in_contact_with_skin_and_if_swallowed","/wiki/R36/38:_Irritating_to_eyes_and_skin","/wiki/R45:_May_cause_cancer","/wiki/List_of_S-phrases","/wiki/S17:_Keep_away_from_combustible_material","/wiki/S45:_In_case_of_accident_or_if_you_feel_unwell_seek_medical_advice_immediately_(show_the_label_where_possible)","/wiki/Standard_state","/wiki/Wikipedia:Chemical_infobox#References","/wiki/File:Formamide-3D-vdW.png","//upload.wikimedia.org/wikipedia/commons/thumb/c/cf/Formamide-3D-vdW.png/30px-Formamide-3D-vdW.png","/wiki/Organic_compound","/wiki/Wikipedia:Stub","//en.wikipedia.org/w/index.php?title=Cyanoacetamide&action=edit","/wiki/Template:Organic-compound-stub","/wiki/Template_talk:Organic-compound-stub","//en.wikipedia.org/w/index.php?title=Template:Organic-compound-stub&action=edit","//en.wikipedia.org/w/index.php?title=Special:CentralAutoLogin/start&type=1x1&from=enwiki","http://en.wikipedia.org/w/index.php?title=Cyanoacetamide&oldid=523785567","/wiki/Help:Categories","/wiki/Category:Acetamides","/wiki/Category:Nitriles","/wiki/Category:Organic_compound_stubs","/wiki/Category:Articles_lacking_sources_from_November_2012","/wiki/Category:All_articles_lacking_sources","/wiki/Category:Articles_containing_unverified_chemical_infoboxes","/w/index.php?title=Special:UserLogin&returnto=Cyanoacetamide&type=signup","/w/index.php?title=Special:UserLogin&returnto=Cyanoacetamide","/wiki/Cyanoacetamide","/wiki/Talk:Cyanoacetamide","#","/wiki/Cyanoacetamide","/w/index.php?title=Cyanoacetamide&action=edit","/w/index.php?title=Cyanoacetamide&action=history","#","/w/index.php","//bits.wikimedia.org/static-1.22wmf10/skins/vector/images/search-ltr.png?303-4","/wiki/Main_Page","/wiki/Main_Page","/wiki/Portal:Contents","/wiki/Portal:Featured_content","/wiki/Portal:Current_events","/wiki/Special:Random","//donate.wikimedia.org/wiki/Special:FundraiserRedirector?utm_source=donate&utm_medium=sidebar&utm_campaign=C13_en.wikipedia.org&uselang=en","/wiki/Help:Contents","/wiki/Wikipedia:About","/wiki/Wikipedia:Community_portal","/wiki/Special:RecentChanges","//en.wikipedia.org/wiki/Wikipedia:Contact_us","/wiki/Special:WhatLinksHere/Cyanoacetamide","/wiki/Special:RecentChangesLinked/Cyanoacetamide","/wiki/Wikipedia:File_Upload_Wizard","/wiki/Special:SpecialPages","/w/index.php?title=Cyanoacetamide&oldid=523785567","/w/index.php?title=Cyanoacetamide&action=info","//www.wikidata.org/wiki/Q5197448","/w/index.php?title=Special:Cite&page=Cyanoacetamide&id=523785567","/w/index.php?title=Special:Book&bookcmd=book_creator&referer=Cyanoacetamide","/w/index.php?title=Special:Book&bookcmd=render_article&arttitle=Cyanoacetamide&oldid=523785567&writer=rl","/w/index.php?title=Cyanoacetamide&printable=yes","//ja.wikipedia.org/wiki/2-%E3%82%B7%E3%82%A2%E3%83%8E%E3%82%A2%E3%82%BB%E3%83%88%E3%82%A2%E3%83%9F%E3%83%89","#","//www.wikidata.org/wiki/Q5197448#sitelinks-wikipedia","//en.wikipedia.org/wiki/Wikipedia:Text_of_Creative_Commons_Attribution-ShareAlike_3.0_Unported_License","//creativecommons.org/licenses/by-sa/3.0/","//wikimediafoundation.org/wiki/Terms_of_Use","//wikimediafoundation.org/wiki/Privacy_policy","//www.wikimediafoundation.org/","//wikimediafoundation.org/wiki/Privacy_policy","/wiki/Wikipedia:About","/wiki/Wikipedia:General_disclaimer","//en.wikipedia.org/wiki/Wikipedia:Contact_us","//en.m.wikipedia.org/wiki/Cyanoacetamide","//wikimediafoundation.org/","//bits.wikimedia.org/images/wikimedia-button.png","//www.mediawiki.org/","//bits.wikimedia.org/static-1.22wmf10/skins/common/images/poweredby_mediawiki_88x31.png","//bits.wikimedia.org/en.wikipedia.org/load.php?debug=false&lang=en&modules=site&only=scripts&skin=vector&*"],"instances":[],"pdf":[],"categories":["Acetamides","Nitriles"],"headings":[],"image":["//upload.wikimedia.org/wikipedia/en/thumb/9/99/Question_book-new.svg/50px-Question_book-new.svg.png","//upload.wikimedia.org/wikipedia/commons/thumb/9/92/Cyanoacetamide.svg/150px-Cyanoacetamide.svg.png","//upload.wikimedia.org/wikipedia/commons/thumb/c/cf/Formamide-3D-vdW.png/30px-Formamide-3D-vdW.png","//en.wikipedia.org/w/index.php?title=Special:CentralAutoLogin/start&type=1x1&from=enwiki","//bits.wikimedia.org/static-1.22wmf10/skins/vector/images/search-ltr.png?303-4","//bits.wikimedia.org/images/wikimedia-button.png","//bits.wikimedia.org/static-1.22wmf10/skins/common/images/poweredby_mediawiki_88x31.png"],"tags":[],"members":[],"related":[]}