{"cursor":"5544","size":15,"audio":[],"currentlang":"en","article":"\n{{chembox\n| verifiedrevid = 443557332 ImageFile1 = Cytosine_chemical_structure.png\n| ImageSize1 = 120px ImageFile2 = Cytosine-3D-balls.png ImageSize2 = 180px\n| ImageFile3 = Cytosine-3D-vdW.png ImageSize3 = 150px IUPACName=4-aminopyrimidin-2(1H)-\n| one OtherNames=4-amino-1H-pyrimidine-2-one Section1= {{Chembox Identifiers\n| ChemSpiderID_Ref = ChemSpiderID = 577 ChEMBL_Ref = ChEMBL = 15913 StdInChI_Ref\n| = StdInChI = 1S/C4H5N3O/c5-3-1-2-6-4(8)7-3/h1-2H,(H3,5,6,7,8) StdInChIKey_Ref\n| = StdInChIKey = OPTASPLRGRRNAP-UHFFFAOYSA-N CASNo=71-30-7 CASNo_Ref =\n| PubChem=597 UNII_Ref = UNII = 8J337D1HZY ChEBI_Ref = ChEBI = 16040 SMILES =\n| c1cnc(=O)[nH]c1N KEGG_Ref = KEGG = C00380 InChI = 1/C4H5N3O/c5-3-1-2-6-4(8)7-3/h1-\n| 2H,(H3,5,6,7,8) InChIKey = OPTASPLRGRRNAP-UHFFFAOYAY MeSHName=Cytosine\n  }} |Section2 = {{Chembox Properties\n|  Formula=C 4H 5N 3O MolarMass=111.10 g/mol\n|  Appearance= Density= 1.55 g/cm 3 (calculated) MeltingPtCL = 320\n|  MeltingPtCH = 325 Melting_notes = decomp. BoilingPt= pKa=4.45 (secondary),\n|  12.2 (primary) Solubility=\n  }} |Section3= {{Chembox Hazards\n|  MainHazards= FlashPt= Autoignition=\n  }} }}\n\n'Cytosine' ('C') is one of the four main bases found in DNA and RNA, along\nwith adenine, guanine, and thymine (uracil in RNA). It is a pyrimidine\nderivative, with a heterocyclic aromatic ring and two substituents attached\n(an amine group at position 4 and a keto group at position 2). The nucleoside\nof cytosine is cytidine. In Watson-Crick base pairing, it forms three hydrogen\nbonds with guanine.\n","linknr":342,"url":"Cytosine","recorded":1363367830,"links":["/w/index.php?title=Cytosine&action=edit","/w/index.php?title=Cytosine&action=edit","//en.wikipedia.org/apple-touch-icon.png","//bits.wikimedia.org/favicon/wikipedia.ico","/w/opensearch_desc.php","//en.wikipedia.org/w/api.php?action=rsd","//creativecommons.org/licenses/by-sa/3.0/","/w/index.php?title=Special:RecentChanges&feed=atom","//bits.wikimedia.org/en.wikipedia.org/load.php?debug=false&lang=en&modules=ext.gadget.DRN-wizard%2CReferenceTooltips%2Ccharinsert%2Cteahouse%7Cext.wikihiero%7Cmediawiki.legacy.commonPrint%2Cshared%7Cmw.PopUpMediaTransform%7Cskins.vector&only=styles&skin=vector&*","//bits.wikimedia.org/en.wikipedia.org/load.php?debug=false&lang=en&modules=site&only=styles&skin=vector&*","//bits.wikimedia.org/en.wikipedia.org/load.php?debug=false&lang=en&modules=startup&only=scripts&skin=vector&*","//bits.wikimedia.org/geoiplookup","//meta.wikimedia.org","#mw-head","#p-search","/wiki/Cysteine","/wiki/Cystine","/wiki/Cytisine","/wiki/Cytidine","/wiki/File:Cytosine_chemical_structure.png","//upload.wikimedia.org/wikipedia/commons/thumb/1/10/Cytosine_chemical_structure.png/120px-Cytosine_chemical_structure.png","/wiki/File:Cytosine-3D-balls.png","//upload.wikimedia.org/wikipedia/commons/thumb/7/73/Cytosine-3D-balls.png/180px-Cytosine-3D-balls.png","/wiki/File:Cytosine-3D-vdW.png","//upload.wikimedia.org/wikipedia/commons/thumb/d/d9/Cytosine-3D-vdW.png/150px-Cytosine-3D-vdW.png","/wiki/International_Union_of_Pure_and_Applied_Chemistry_nomenclature","/wiki/CAS_registry_number","http://www.commonchemistry.org/ChemicalDetail.aspx?ref=71-30-7","//upload.wikimedia.org/wikipedia/en/thumb/f/fb/Yes_check.svg/7px-Yes_check.svg.png","/wiki/PubChem","http://pubchem.ncbi.nlm.nih.gov/summary/summary.cgi?cid=597","/wiki/ChemSpider","http://www.chemspider.com/577","//upload.wikimedia.org/wikipedia/en/thumb/f/fb/Yes_check.svg/7px-Yes_check.svg.png","/wiki/Unique_Ingredient_Identifier","http://fdasis.nlm.nih.gov/srs/srsdirect.jsp?regno=8J337D1HZY","//upload.wikimedia.org/wikipedia/en/thumb/f/fb/Yes_check.svg/7px-Yes_check.svg.png","/wiki/KEGG","http://www.kegg.jp/entry/C00380","//upload.wikimedia.org/wikipedia/en/thumb/f/fb/Yes_check.svg/7px-Yes_check.svg.png","/wiki/Medical_Subject_Headings","http://www.nlm.nih.gov/cgi/mesh/2007/MB_cgi?mode=&term=Cytosine","/wiki/ChEBI","https://www.ebi.ac.uk/chebi/searchId.do?chebiId=16040","//upload.wikimedia.org/wikipedia/en/thumb/f/fb/Yes_check.svg/7px-Yes_check.svg.png","/wiki/ChEMBL","https://www.ebi.ac.uk/chembldb/index.php/compound/inspect/CHEMBL15913","//upload.wikimedia.org/wikipedia/en/thumb/f/fb/Yes_check.svg/7px-Yes_check.svg.png","/wiki/Jmol","http://chemapps.stolaf.edu/jmol/jmol.php?model=c1cnc%28%3DO%29%5BnH%5Dc1N","/wiki/Simplified_molecular-input_line-entry_system","/wiki/International_Chemical_Identifier","//upload.wikimedia.org/wikipedia/en/thumb/f/fb/Yes_check.svg/7px-Yes_check.svg.png","//upload.wikimedia.org/wikipedia/en/thumb/f/fb/Yes_check.svg/7px-Yes_check.svg.png","/wiki/Chemical_formula","/wiki/Molar_mass","/wiki/Density","/wiki/Melting_point","/wiki/Acid_dissociation_constant","#cite_note-1","//upload.wikimedia.org/wikipedia/en/thumb/f/fb/Yes_check.svg/14px-Yes_check.svg.png","//en.wikipedia.org/w/index.php?title=Special:ComparePages&rev1=443557332&page2=Cytosine","/wiki/Wikipedia:WikiProject_Chemicals/Chembox_validation","//upload.wikimedia.org/wikipedia/en/thumb/f/fb/Yes_check.svg/10px-Yes_check.svg.png","//upload.wikimedia.org/wikipedia/commons/thumb/a/a2/X_mark.svg/10px-X_mark.svg.png","/wiki/Standard_state","/wiki/Wikipedia:Chemical_infobox#References","/wiki/Help:IPA_for_English","/wiki/Help:IPA_for_English#Key","/wiki/Help:IPA_for_English#Key","/wiki/Help:IPA_for_English#Key","/wiki/Help:IPA_for_English#Key","/wiki/Help:IPA_for_English#Key","/wiki/Help:IPA_for_English#Key","/wiki/Help:IPA_for_English#Key","/wiki/Help:IPA_for_English#Key","/wiki/Help:IPA_for_English","/wiki/DNA","/wiki/RNA","/wiki/Adenine","/wiki/Guanine","/wiki/Thymine","/wiki/Uracil","/wiki/Pyrimidine","/wiki/Heterocyclic","/wiki/Aromatic_ring","/wiki/Amine","/wiki/Ketone","/wiki/Nucleoside","/wiki/Cytidine","/wiki/Base_pair","/wiki/Guanine","#History","#Chemical_reactions","#References","#External_links_and_Citations","/w/index.php?title=Cytosine&action=edit&section=1","/wiki/Albrecht_Kossel","/wiki/Thymus","#cite_note-2","/wiki/Quantum_computation","/wiki/Quantum","/wiki/Information","/wiki/David_Deutsch","/wiki/Deutsch-Jozsa_algorithm","/wiki/Qubit","/wiki/Nuclear_magnetic_resonance","#cite_note-3","/w/index.php?title=Cytosine&action=edit&section=2","/wiki/File:Cytosine_chemical_structure.svg","//upload.wikimedia.org/wikipedia/commons/thumb/8/8b/Cytosine_chemical_structure.svg/100px-Cytosine_chemical_structure.svg.png","/wiki/File:Cytosine_chemical_structure.svg","//bits.wikimedia.org/static-1.21wmf11/skins/common/images/magnify-clip.png","/wiki/Methylation","/wiki/Nucleotide","/wiki/Cytidine_triphosphate","/wiki/Adenosine_diphosphate","/wiki/Adenosine_triphosphate","/wiki/Guanine","/wiki/Uracil","/wiki/Deamination","/wiki/Point_mutation","/wiki/DNA_repair","/wiki/Enzymes","/wiki/Methylated","/wiki/5-methylcytosine","/wiki/DNA_methyltransferase","/wiki/Hydroxylated","/wiki/5-hydroxymethylcytosine","/wiki/APOBEC","#cite_note-Chahwan-4","/w/index.php?title=Cytosine&action=edit&section=3","#cite_ref-1","#cite_ref-2","/wiki/Digital_object_identifier","http://dx.doi.org/10.1515%2Fbchm2.1903.38.1-2.49","#cite_ref-3","http://www.citebase.org/abstract?id=oai%3AarXiv.org%3Aquant-ph%2F9801027","/wiki/Digital_object_identifier","http://dx.doi.org/10.1063%2F1.476739","http://www.citebase.org/abstract?id=oai%3AarXiv.org%3Aquant-ph%2F9801027","#cite_ref-Chahwan_4-0","/wiki/Digital_object_identifier","http://dx.doi.org/10.1016%2Fj.tig.2010.07.005","/wiki/PubMed_Identifier","//www.ncbi.nlm.nih.gov/pubmed/20800313","/w/index.php?title=Cytosine&action=edit&section=4","/wiki/EINECS_number","http://ecb.jrc.it/esis-pgm/esis_reponse.php?LANG=en&FROM=LISTE_EINECS&ENTREE=200-749-5","http://www.pnas.org/cgi/content/full/96/8/4396","/wiki/Digital_object_identifier","http://dx.doi.org/10.1073%2Fpnas.96.8.4396","/wiki/PubMed_Central","//www.ncbi.nlm.nih.gov/pmc/articles/PMC16343","/wiki/PubMed_Identifier","//www.ncbi.nlm.nih.gov/pubmed/10200273","http://www.pnas.org/cgi/content/full/96/8/4396","/wiki/Template:Nucleobases,_nucleosides,_and_nucleotides","/wiki/Template_talk:Nucleobases,_nucleosides,_and_nucleotides","//en.wikipedia.org/w/index.php?title=Template:Nucleobases,_nucleosides,_and_nucleotides&action=edit","/wiki/Nucleic_acid","/wiki/Nucleobase","/wiki/Purine","/wiki/Adenine","/wiki/Guanine","/wiki/Purine_analogue","/wiki/Pyrimidine","/wiki/Uracil","/wiki/Thymine","/wiki/Pyrimidine_analogue","/wiki/Nucleoside","/wiki/Ribonucleoside","/wiki/Adenosine","/wiki/Guanosine","/wiki/5-Methyluridine","/wiki/Uridine","/wiki/Cytidine","/wiki/Deoxyribonucleoside","/wiki/Deoxyadenosine","/wiki/Deoxyguanosine","/wiki/Thymidine","/wiki/Deoxyuridine","/wiki/Deoxycytidine","/wiki/Nucleotide","/wiki/Ribonucleotide","/wiki/Adenosine_monophosphate","/wiki/Guanosine_monophosphate","/w/index.php?title=5-Methyluridine_monophosphate&action=edit&redlink=1","/wiki/Uridine_monophosphate","/wiki/Cytidine_monophosphate","/wiki/Deoxyribonucleotide","/wiki/Deoxyadenosine_monophosphate","/wiki/Deoxyguanosine_monophosphate","/wiki/Thymidine_monophosphate","/wiki/Deoxyuridine_monophosphate","/wiki/Deoxycytidine_monophosphate","/wiki/Cyclic_nucleotide","/wiki/Cyclic_adenosine_monophosphate","/wiki/Cyclic_guanosine_monophosphate","/wiki/Cyclic_di-GMP","/wiki/Cyclic_ADP-ribose","/wiki/Nucleoside_diphosphate","/wiki/Adenosine_diphosphate","/wiki/Guanosine_diphosphate","/w/index.php?title=5-Methyluridine_diphosphate&action=edit&redlink=1","/wiki/Uridine_diphosphate","/wiki/Cytidine_diphosphate","/wiki/Deoxyadenosine_diphosphate","/wiki/Deoxyguanosine_diphosphate","/wiki/Thymidine_diphosphate","/w/index.php?title=Deoxyuridine_diphosphate&action=edit&redlink=1","/wiki/Deoxycytidine_diphosphate","/wiki/Nucleoside_triphosphate","/wiki/Adenosine_triphosphate","/wiki/Guanosine_triphosphate","/wiki/5-Methyluridine_triphosphate","/wiki/Uridine_triphosphate","/wiki/Cytidine_triphosphate","/wiki/Deoxyadenosine_triphosphate","/wiki/Deoxyguanosine_triphosphate","/wiki/Thymidine_triphosphate","/w/index.php?title=Deoxyuridine_triphosphate&action=edit&redlink=1","/wiki/Deoxycytidine_triphosphate","/wiki/Biochemistry","/wiki/Template:Metabolism","/wiki/Template:Carbohydrates","/wiki/Template:Alcohols","/wiki/Template:Glycoproteins","/wiki/Template:Glycosides","/wiki/Template:Lipids","/wiki/Template:Eicosanoids","/wiki/Template:Fatty_acids","/wiki/Template:Fatty-acid_metabolism_intermediates","/wiki/Template:Phospholipids","/wiki/Template:Sphingolipids","/wiki/Template:Cholesterol_and_steroid_intermediates","/wiki/Template:Nucleic_acids","/wiki/Template:Nucleobases,_nucleosides,_and_nucleotides","/wiki/Template:Nucleotide_metabolism_intermediates","/wiki/Template:Protein_topics","/wiki/Template:AminoAcids","/wiki/Template:Amino_acid_metabolism_intermediates","/wiki/Template:Tetrapyrroles","/wiki/Template:Heme_metabolism_intermediates","http://en.wikipedia.org/w/index.php?title=Cytosine&oldid=544403558","/wiki/Help:Categories","/wiki/Category:Amines","/wiki/Category:Pyrimidones","/w/index.php?title=Special:UserLogin&returnto=Cytosine&type=signup","/w/index.php?title=Special:UserLogin&returnto=Cytosine","/wiki/Cytosine","/wiki/Talk:Cytosine","#","/wiki/Cytosine","/w/index.php?title=Cytosine&action=edit","/w/index.php?title=Cytosine&action=history","#","/w/index.php","//bits.wikimedia.org/static-1.21wmf11/skins/vector/images/search-ltr.png?303-4","/wiki/Main_Page","/wiki/Main_Page","/wiki/Portal:Contents","/wiki/Portal:Featured_content","/wiki/Portal:Current_events","/wiki/Special:Random","//donate.wikimedia.org/wiki/Special:FundraiserRedirector?utm_source=donate&utm_medium=sidebar&utm_campaign=C13_en.wikipedia.org&uselang=en","/wiki/Help:Contents","/wiki/Wikipedia:About","/wiki/Wikipedia:Community_portal","/wiki/Special:RecentChanges","/wiki/Wikipedia:Contact_us","/wiki/Special:WhatLinksHere/Cytosine","/wiki/Special:RecentChangesLinked/Cytosine","/wiki/Wikipedia:File_Upload_Wizard","/wiki/Special:SpecialPages","/w/index.php?title=Cytosine&oldid=544403558","/w/index.php?title=Cytosine&action=info","/w/index.php?title=Special:Cite&page=Cytosine&id=544403558","/w/index.php?title=Special:Book&bookcmd=book_creator&referer=Cytosine","/w/index.php?title=Special:Book&bookcmd=render_article&arttitle=Cytosine&oldid=544403558&writer=rl","/w/index.php?title=Cytosine&printable=yes","//ar.wikipedia.org/wiki/%D8%B3%D9%8A%D8%AA%D9%88%D8%B2%D9%8A%D9%86","//zh-min-nan.wikipedia.org/wiki/Cytosin","//bg.wikipedia.org/wiki/%D0%A6%D0%B8%D1%82%D0%BE%D0%B7%D0%B8%D0%BD","//br.wikipedia.org/wiki/Sitozin","//ca.wikipedia.org/wiki/Citosina","//cs.wikipedia.org/wiki/Cytosin","//da.wikipedia.org/wiki/Cytosin","//de.wikipedia.org/wiki/Cytosin","//et.wikipedia.org/wiki/Ts%C3%BCtosiin","//el.wikipedia.org/wiki/%CE%9A%CF%85%CF%84%CE%BF%CF%83%CE%AF%CE%BD%CE%B7","//es.wikipedia.org/wiki/Citosina","//eo.wikipedia.org/wiki/Citozino","//eu.wikipedia.org/wiki/Zitosina","//fa.wikipedia.org/wiki/%D8%B3%DB%8C%D8%AA%D9%88%D8%B2%DB%8C%D9%86","//fr.wikipedia.org/wiki/Cytosine","//gl.wikipedia.org/wiki/Citosina","//ko.wikipedia.org/wiki/%EC%8B%9C%ED%86%A0%EC%8B%A0","//hi.wikipedia.org/wiki/%E0%A4%B8%E0%A4%BE%E0%A4%87%E0%A4%9F%E0%A5%8B%E0%A4%B8%E0%A4%BF%E0%A4%A8","//hr.wikipedia.org/wiki/Citozin","//id.wikipedia.org/wiki/Sitosina","//it.wikipedia.org/wiki/Citosina","//he.wikipedia.org/wiki/%D7%A6%D7%99%D7%98%D7%95%D7%96%D7%99%D7%9F","//jv.wikipedia.org/wiki/Sitosin","//kk.wikipedia.org/wiki/%D0%A6%D0%B8%D1%82%D0%BE%D0%B7%D0%B8%D0%BD","//lt.wikipedia.org/wiki/Citozinas","//hu.wikipedia.org/wiki/Citozin","//nl.wikipedia.org/wiki/Cytosine","//ja.wikipedia.org/wiki/%E3%82%B7%E3%83%88%E3%82%B7%E3%83%B3","//no.wikipedia.org/wiki/Cytosin","//oc.wikipedia.org/wiki/Citosina","//pl.wikipedia.org/wiki/Cytozyna","//pt.wikipedia.org/wiki/Citosina","//ru.wikipedia.org/wiki/%D0%A6%D0%B8%D1%82%D0%BE%D0%B7%D0%B8%D0%BD","//simple.wikipedia.org/wiki/Cytosine","//sk.wikipedia.org/wiki/Cytoz%C3%ADn","//sl.wikipedia.org/wiki/Citozin","//sr.wikipedia.org/wiki/%D0%A6%D0%B8%D1%82%D0%BE%D0%B7%D0%B8%D0%BD","//sh.wikipedia.org/wiki/Citozin","//fi.wikipedia.org/wiki/Sytosiini","//sv.wikipedia.org/wiki/Cytosin","//tr.wikipedia.org/wiki/Sitozin","//uk.wikipedia.org/wiki/%D0%A6%D0%B8%D1%82%D0%BE%D0%B7%D0%B8%D0%BD","//ur.wikipedia.org/wiki/Cytosine","//vi.wikipedia.org/wiki/Cytosine","//zh.wikipedia.org/wiki/%E8%83%9E%E5%98%A7%E5%95%B6","//www.wikidata.org/wiki/Special:ItemByTitle/enwiki/Cytosine","//en.wikipedia.org/wiki/Wikipedia:Text_of_Creative_Commons_Attribution-ShareAlike_3.0_Unported_License","//creativecommons.org/licenses/by-sa/3.0/","//wikimediafoundation.org/wiki/Terms_of_Use","//www.wikimediafoundation.org/","//en.wikipedia.org/wiki/Wikipedia:Contact_us","//wikimediafoundation.org/wiki/Privacy_policy","/wiki/Wikipedia:About","/wiki/Wikipedia:General_disclaimer","http://en.m.wikipedia.org/wiki/Cytosine","//wikimediafoundation.org/","//bits.wikimedia.org/images/wikimedia-button.png","//www.mediawiki.org/","//bits.wikimedia.org/static-1.21wmf11/skins/common/images/poweredby_mediawiki_88x31.png","//bits.wikimedia.org/en.wikipedia.org/load.php?debug=false&lang=en&modules=skins.vector&only=scripts&skin=vector&*","/w/index.php?title=MediaWiki:Gadget-ReferenceTooltips.js&action=raw&ctype=text/javascript&508635914","//bits.wikimedia.org/en.wikipedia.org/load.php?debug=false&lang=en&modules=site&only=scripts&skin=vector&*"],"instances":[],"pdf":[],"categories":["Amines","Pyrimidones"],"headings":["History","Chemical reactions","References","External links and Citations"],"image":["//upload.wikimedia.org/wikipedia/commons/thumb/1/10/Cytosine_chemical_structure.png/120px-Cytosine_chemical_structure.png","//upload.wikimedia.org/wikipedia/commons/thumb/7/73/Cytosine-3D-balls.png/180px-Cytosine-3D-balls.png","//upload.wikimedia.org/wikipedia/commons/thumb/d/d9/Cytosine-3D-vdW.png/150px-Cytosine-3D-vdW.png","//upload.wikimedia.org/wikipedia/en/thumb/f/fb/Yes_check.svg/7px-Yes_check.svg.png","//upload.wikimedia.org/wikipedia/en/thumb/f/fb/Yes_check.svg/7px-Yes_check.svg.png","//upload.wikimedia.org/wikipedia/en/thumb/f/fb/Yes_check.svg/7px-Yes_check.svg.png","//upload.wikimedia.org/wikipedia/en/thumb/f/fb/Yes_check.svg/7px-Yes_check.svg.png","//upload.wikimedia.org/wikipedia/en/thumb/f/fb/Yes_check.svg/7px-Yes_check.svg.png","//upload.wikimedia.org/wikipedia/en/thumb/f/fb/Yes_check.svg/7px-Yes_check.svg.png","//upload.wikimedia.org/wikipedia/en/thumb/f/fb/Yes_check.svg/7px-Yes_check.svg.png","//upload.wikimedia.org/wikipedia/en/thumb/f/fb/Yes_check.svg/7px-Yes_check.svg.png","//upload.wikimedia.org/wikipedia/en/thumb/f/fb/Yes_check.svg/14px-Yes_check.svg.png","//upload.wikimedia.org/wikipedia/en/thumb/f/fb/Yes_check.svg/10px-Yes_check.svg.png","//upload.wikimedia.org/wikipedia/commons/thumb/a/a2/X_mark.svg/10px-X_mark.svg.png","//upload.wikimedia.org/wikipedia/commons/thumb/8/8b/Cytosine_chemical_structure.svg/100px-Cytosine_chemical_structure.svg.png","//bits.wikimedia.org/static-1.21wmf11/skins/common/images/magnify-clip.png","//bits.wikimedia.org/static-1.21wmf11/skins/vector/images/search-ltr.png?303-4","//bits.wikimedia.org/images/wikimedia-button.png","//bits.wikimedia.org/static-1.21wmf11/skins/common/images/poweredby_mediawiki_88x31.png"],"tags":[],"members":[],"related":["DNA","RNA","Adenine","Guanine","Thymine","Uracil","Pyrimidine","Heterocyclic","Aromatic_ring","Amine","Ketone","Nucleoside","Cytidine","Base_pair","Guanine","Albrecht_Kossel","Thymus","Quantum_computation","Quantum","Information","David_Deutsch","Deutsch-Jozsa_algorithm","Qubit","Nuclear_magnetic_resonance","Nucleotide","Cytidine_triphosphate","Adenosine_diphosphate","Adenosine_triphosphate","Guanine","Uracil","Deamination","Point_mutation","DNA_repair","Enzymes","Methylated","5-methylcytosine","DNA_methyltransferase","Hydroxylated","5-hydroxymethylcytosine","APOBEC"]}