{"cursor":"16928","size":15,"audio":["//upload.wikimedia.org/wikipedia/commons/5/5a/Dihydroxyacetone-pronunciation.ogg"],"currentlang":"en","article":"{{chembox\n| Verifiedfields = changed verifiedrevid = 460788111 Name = Dihydroxyacetone\n| ImageFile_Ref = ImageFile = Dihydroxyacetone.png ImageSize = ImageName =\n| Dihydroxyacetone IUPACName = 1,3-Dihydroxypropan-2-one OtherNames =\n| Dihydroxyacetone DHA Glycerone Section1 = {{Chembox Identifiers\n| UNII_Ref = UNII = O10DDW6JOO KEGG_Ref = KEGG = D07841 InChI = 1/C3H6O3/c4-1-3(6)2-5/h4-5H,1-\n| 2H2 PubChem = 670 ChEMBL_Ref = ChEMBL = 1229937 InChIKey = RXKJFZQQPQGTFL-\n| UHFFFAOYAE StdInChI_Ref = StdInChI = 1S/C3H6O3/c4-1-3(6)2-5/h4-5H,1-2H2\n| StdInChIKey_Ref = StdInChIKey = RXKJFZQQPQGTFL-UHFFFAOYSA-N CASNo = 96-26-4\n| CASNo_Ref = EC-number = 202-494-5 ChemSpiderID_Ref = ChemSpiderID = 650\n| DrugBank_Ref = DrugBank = DB01775 ChEBI_Ref = ChEBI = 16016 SMILES = O=C(CO)CO\n}}\n| Section2 = {{Chembox Properties Reference = . Formula =\n| C 3H 6O 3 MolarMass = 90.078 g/mol MeltingPtCL =\n| 89 MeltingPtCH = 91 BoilingPt =\n  }}\n| Section7 = {{Chembox Hazards Reference = . GHSPictograms =\n| GHSSignalWord = WARNING HPhrases = PPhrases =\n  }} }}\n\n'Dihydroxyacetone' , or 'DHA', also known as 'glycerone', is a simple\ncarbohydrate (a triose) with formula .\n\nDHA is primarily used as an ingredient in sunless tanning products. It is often\nderived from plant sources such as sugar beets and sugar cane, and by the\nfermentation of glycerin.\n","linknr":443,"url":"Dihydroxyacetone","recorded":1374766819,"links":["/w/index.php?title=Dihydroxyacetone&action=edit","/w/index.php?title=Dihydroxyacetone&action=edit","//bits.wikimedia.org/favicon/wikipedia.ico","/w/opensearch_desc.php","//en.wikipedia.org/w/api.php?action=rsd","//creativecommons.org/licenses/by-sa/3.0/","/w/index.php?title=Special:RecentChanges&feed=atom","//bits.wikimedia.org/en.wikipedia.org/load.php?debug=false&lang=en&modules=ext.gadget.DRN-wizard%2CReferenceTooltips%2Ccharinsert%2Cteahouse%7Cext.rtlcite%2Cwikihiero%7Cext.uls.nojs%7Cmediawiki.legacy.commonPrint%2Cshared%7Cmw.PopUpMediaTransform%7Cskins.vector&only=styles&skin=vector&*","//bits.wikimedia.org/en.wikipedia.org/load.php?debug=false&lang=en&modules=site&only=styles&skin=vector&*","//bits.wikimedia.org/en.wikipedia.org/load.php?debug=false&lang=en&modules=startup&only=scripts&skin=vector&*","//bits.wikimedia.org/geoiplookup","//meta.wikimedia.org","#mw-navigation","#p-search","/wiki/File:Dihydroxyacetone.png","//upload.wikimedia.org/wikipedia/commons/thumb/2/28/Dihydroxyacetone.png/200px-Dihydroxyacetone.png","/wiki/International_Union_of_Pure_and_Applied_Chemistry_nomenclature","/wiki/CAS_registry_number","http://www.commonchemistry.org/ChemicalDetail.aspx?ref=96-26-4","//upload.wikimedia.org/wikipedia/en/thumb/f/fb/Yes_check.svg/7px-Yes_check.svg.png","/wiki/PubChem","http://pubchem.ncbi.nlm.nih.gov/summary/summary.cgi?cid=670","/wiki/ChemSpider","http://www.chemspider.com/650","//upload.wikimedia.org/wikipedia/en/thumb/f/fb/Yes_check.svg/7px-Yes_check.svg.png","/wiki/Unique_Ingredient_Identifier","http://fdasis.nlm.nih.gov/srs/srsdirect.jsp?regno=O10DDW6JOO","//upload.wikimedia.org/wikipedia/en/thumb/f/fb/Yes_check.svg/7px-Yes_check.svg.png","/wiki/EC_number_(chemistry)","http://ecb.jrc.ec.europa.eu/esis/index.php?GENRE=ECNO&ENTREE=202-494-5","/wiki/DrugBank","http://www.drugbank.ca/drugs/DB01775","/wiki/KEGG","http://www.kegg.jp/entry/D07841","//upload.wikimedia.org/wikipedia/en/thumb/f/fb/Yes_check.svg/7px-Yes_check.svg.png","/wiki/ChEBI","https://www.ebi.ac.uk/chebi/searchId.do?chebiId=16016","//upload.wikimedia.org/wikipedia/en/thumb/f/fb/Yes_check.svg/7px-Yes_check.svg.png","/wiki/ChEMBL","https://www.ebi.ac.uk/chembldb/index.php/compound/inspect/CHEMBL1229937","//upload.wikimedia.org/wikipedia/commons/thumb/a/a2/X_mark.svg/7px-X_mark.svg.png","/wiki/Jmol","http://chemapps.stolaf.edu/jmol/jmol.php?model=O%3DC%28CO%29CO","/wiki/Simplified_molecular-input_line-entry_system","/wiki/International_Chemical_Identifier","//upload.wikimedia.org/wikipedia/en/thumb/f/fb/Yes_check.svg/7px-Yes_check.svg.png","//upload.wikimedia.org/wikipedia/en/thumb/f/fb/Yes_check.svg/7px-Yes_check.svg.png","#cite_note-1","/wiki/Chemical_formula","/wiki/Molar_mass","/wiki/Melting_point","#cite_note-2","/wiki/GHS_hazard_pictograms","/wiki/File:GHS-pictogram-exclam.svg","//upload.wikimedia.org/wikipedia/commons/thumb/c/c3/GHS-pictogram-exclam.svg/50px-GHS-pictogram-exclam.svg.png","/wiki/Globally_Harmonized_System_of_Classification_and_Labelling_of_Chemicals","/wiki/GHS_hazard_statement","/wiki/GHS_precautionary_statements","//upload.wikimedia.org/wikipedia/commons/thumb/a/a2/X_mark.svg/14px-X_mark.svg.png","//en.wikipedia.org/w/index.php?title=Special:ComparePages&rev1=460788111&page2=Dihydroxyacetone","/wiki/Wikipedia:WikiProject_Chemicals/Chembox_validation","//upload.wikimedia.org/wikipedia/en/thumb/f/fb/Yes_check.svg/10px-Yes_check.svg.png","//upload.wikimedia.org/wikipedia/commons/thumb/a/a2/X_mark.svg/10px-X_mark.svg.png","/wiki/Standard_state","/wiki/Wikipedia:Chemical_infobox#References","//upload.wikimedia.org/wikipedia/commons/5/5a/Dihydroxyacetone-pronunciation.ogg","//upload.wikimedia.org/wikipedia/commons/thumb/3/3b/Speakerlink-new.svg/11px-Speakerlink-new.svg.png","/wiki/File:Dihydroxyacetone-pronunciation.ogg","/wiki/Help:IPA_for_English","/wiki/Help:IPA_for_English#Key","/wiki/Help:IPA_for_English#Key","/wiki/Help:IPA_for_English#Key","/wiki/Help:IPA_for_English#Key","/wiki/Help:IPA_for_English#Key","/wiki/Help:IPA_for_English#Key","/wiki/Help:IPA_for_English#Key","/wiki/Help:IPA_for_English#Key","/wiki/Help:IPA_for_English#Key","/wiki/Help:IPA_for_English#Key","/wiki/Help:IPA_for_English#Key","/wiki/Help:IPA_for_English#Key","/wiki/Help:IPA_for_English#Key","/wiki/Help:IPA_for_English#Key","/wiki/Help:IPA_for_English#Key","/wiki/Help:IPA_for_English#Key","/wiki/Help:IPA_for_English#Key","/wiki/Help:IPA_for_English#Key","/wiki/Help:IPA_for_English#Key","/wiki/Help:IPA_for_English","/wiki/Carbohydrate","/wiki/Triose","/wiki/Sunless_tanning","/wiki/Sugar_beet","/wiki/Sugar_cane","/wiki/Glycerin","#Chemistry","#Biology","#Uses","#Winemaking","#Sunless_tanning","#DHA_safety_considerations","#References","#External_links","/w/index.php?title=Dihydroxyacetone&action=edit&section=1","/wiki/Hygroscopic","/wiki/Ketose","/wiki/Chiral_center","/wiki/Optical_activity","/wiki/Dimer_(chemistry)","/wiki/Ethanol","#cite_note-3","/wiki/Diethyl_ether","/wiki/Acetone","/wiki/Toluene","/wiki/Glyceraldehyde","/wiki/Glycerol","/wiki/Hydrogen_peroxide","/wiki/Ferrous","/wiki/Catalyst","/wiki/Glycerol","#cite_note-4","#cite_note-5","#cite_note-6","/wiki/Structural_isomer","/w/index.php?title=Dihydroxyacetone&action=edit&section=2","/wiki/Dihydroxyacetone_phosphate","/wiki/Glycolysis","/wiki/Fructose#Fructolysis","/w/index.php?title=Dihydroxyacetone&action=edit&section=3","/wiki/X-ray","#cite_note-7","#cite_note-8","#cite_note-9","#cite_note-10","/wiki/Glycogen_storage_disease","/wiki/Pigmentation","/wiki/Stratum_corneum","/wiki/Vitiligo","/wiki/Maillard_reaction","/wiki/Amino_acid","/wiki/Keratin","/wiki/Melanoidin","/wiki/Melanin","/wiki/Ultraviolet","/w/index.php?title=Dihydroxyacetone&action=edit&section=4","/wiki/Glycerol","/wiki/Ketogenesis","#cite_note-Drysdale1988-11","/wiki/Proline","#cite_note-Drysdale1988-11","#cite_note-12","#cite_note-13","#cite_note-14","/w/index.php?title=Dihydroxyacetone&action=edit&section=5","/wiki/Sunless_tanning","/wiki/Food_and_Drug_Administration_(United_States)","#cite_note-15","/wiki/Erythrulose","/wiki/Sunless_tanning","/wiki/Airbrush","/w/index.php?title=Dihydroxyacetone&action=edit&section=6","/wiki/Wikipedia:Citation_needed","/wiki/Skin_Cancer_Foundation","/w/index.php?title=American_Academy_of_Dermatology_Association&action=edit&redlink=1","/w/index.php?title=Canadian_Dermatology_Association&action=edit&redlink=1","/wiki/American_Medical_Association","#cite_note-16","#cite_note-17","#cite_note-18","#cite_note-19","#cite_note-20","#cite_note-21","#cite_note-22","/wiki/Contact_dermatitis","#cite_note-23","/wiki/Contact_dermatitis","#cite_note-24","/wiki/Preservatives","/wiki/Wikipedia:Citation_needed","/w/index.php?title=Dihydroxyacetone&action=edit&section=7","#cite_ref-1","/wiki/International_Standard_Book_Number","/wiki/Special:BookSources/0-8493-0462-8","#cite_ref-2","http://www.ermanz.govt.nz/Chemicals/ChemicalDisplay.aspx?SubstanceID=11687","/wiki/Help:CS1_errors#bare_url_missing_title","#cite_ref-3","/wiki/Merck_Index","/wiki/International_Standard_Book_Number","/wiki/Special:BookSources/0911910123","#cite_ref-4","http://onlinelibrary.wiley.com/doi/10.1002/anie.201004063/abstract","#cite_ref-5","http://pubs.acs.org/doi/full/10.1021/ja4008694","#cite_ref-6","http://pubs.acs.org/doi/abs/10.1021/om4001549","#cite_ref-7","http://pubs.acs.org/cen/whatstuff/stuff/7824scit2.html/","#cite_ref-8","/wiki/Digital_object_identifier","http://dx.doi.org/10.1038%2Fjid.1961.137","/wiki/PubMed_Identifier","//www.ncbi.nlm.nih.gov/pubmed/14007781","#cite_ref-9","/wiki/PubMed_Identifier","//www.ncbi.nlm.nih.gov/pubmed/13706567","#cite_ref-10","/wiki/Digital_object_identifier","http://dx.doi.org/10.1126%2Fscience.132.3431.894","/wiki/PubMed_Identifier","//www.ncbi.nlm.nih.gov/pubmed/13845496","#cite_ref-Drysdale1988_11-0","#cite_ref-Drysdale1988_11-1","#cite_ref-12","/wiki/Special:BookSources/0398040834","#cite_ref-13","/wiki/Special:BookSources/0834212706","#cite_ref-14","#cite_ref-15","http://www.accessdata.fda.gov/scripts/cdrh/cfdocs/cfcfr/CFRSearch.cfm?fr=73.1150","#cite_ref-16","http://ec.europa.eu/health/scientific_committees/consumer_safety/docs/sccs_o_048.pdf","#cite_ref-17","#cite_ref-18","/wiki/Digital_object_identifier","http://dx.doi.org/10.1088%2F0967-3334%2F25%2F5%2F010","/wiki/PubMed_Identifier","//www.ncbi.nlm.nih.gov/pubmed/15535185","#cite_ref-19","#cite_ref-20","#cite_ref-21","#cite_ref-22","#cite_ref-23","#cite_ref-24","http://www.ncbi.nlm.nih.gov/pubmed/19016307","/w/index.php?title=Dihydroxyacetone&action=edit&section=8","http://home.howstuffworks.com/question639.htm/","http://www.fda.gov/Cosmetics/ProductandIngredientSafety/ProductInformation/ucm134217.htm","http://www.aad.org/public/Publications/pamphlets/Sunscreens.htm/","http://www.aad.org/public/Publications/pamphlets/Vitiligo.htm/","http://content.karger.com/ProdukteDB/produkte.asp?Aktion=ShowPDF&ProduktNr=224164&Ausgabe=227731&ArtikelNr=51757&filename=51757.pdf/","http://www.ingentaconnect.com/content/adis/derm/2002/00000003/00000005/art00003/","http://www.cancer.org/docroot/SPC/content/SPC_1_Tanning_the_Sunless_Way.asp/","http://www.dermnetnz.org/treatments/dihydroxyacetone.html/","/wiki/Template:Carbohydrates","/wiki/Template_talk:Carbohydrates","//en.wikipedia.org/w/index.php?title=Template:Carbohydrates&action=edit","/wiki/Carbohydrate","/wiki/Aldose","/wiki/Furanose","/wiki/Ketose","/wiki/Pyranose","/wiki/Anomer","/wiki/Cyclohexane_conformation","/wiki/Mutarotation","/wiki/Monosaccharide","/wiki/Diose","/wiki/Glycolaldehyde","/wiki/Triose","/wiki/Glyceraldehyde","/wiki/Tetrose","/wiki/Erythrose","/wiki/Threose","/wiki/Erythrulose","/wiki/Pentose","/wiki/Arabinose","/wiki/Lyxose","/wiki/Ribose","/wiki/Xylose","/wiki/Deoxy_sugar","/wiki/Deoxyribose","/wiki/Ribulose","/wiki/Xylulose","/wiki/Hexose","/wiki/Aldohexose","/wiki/Allose","/wiki/Altrose","/wiki/Galactose","/wiki/Glucose","/wiki/Gulose","/wiki/Idose","/wiki/Mannose","/wiki/Talose","/wiki/Deoxy_sugar","/wiki/Fucose","/wiki/Fuculose","/wiki/Rhamnose","/wiki/Ketohexose","/wiki/Fructose","/wiki/Psicose","/wiki/Sorbose","/wiki/Tagatose","/wiki/Heptose","/wiki/Mannoheptulose","/wiki/Sedoheptulose","/wiki/Octose","/wiki/Nonose","/wiki/Neuraminic_acid","/wiki/Disaccharide","/wiki/Cellobiose","/wiki/Lactose","/wiki/Maltose","/wiki/Sucrose","/wiki/Trehalose","/wiki/Turanose","/wiki/Trisaccharide","/wiki/Maltotriose","/wiki/Melezitose","/wiki/Raffinose","/wiki/Tetrasaccharide","/wiki/Stachyose","/wiki/Oligosaccharide","/wiki/Acarbose","/wiki/Fructooligosaccharide","/wiki/Galactooligosaccharide","/wiki/Isomaltooligosaccharide","/wiki/Maltodextrin","/wiki/Mannan_oligosaccharide-based_nutritional_supplements","/wiki/Polysaccharide","/wiki/Beta-glucan","/wiki/Lentinan","/wiki/Sizofiran","/wiki/Zymosan","/wiki/Cellulose","/wiki/Chitin","/wiki/Dextrin","/wiki/Dextran","/wiki/Fructose","/wiki/Fructan","/wiki/Inulin","/wiki/Galactose","/wiki/Galactose","/wiki/Glucose","/wiki/Glucan","/wiki/Glycogen","/wiki/Levan_polysaccharide","/wiki/Mannan","/wiki/Starch","/wiki/Amylopectin","/wiki/Amylose","/wiki/Biochemistry","/wiki/Template:Metabolism","/wiki/Template:Carbohydrates","/wiki/Template:Alcohols","/wiki/Template:Glycoproteins","/wiki/Template:Glycosides","/wiki/Template:Lipids","/wiki/Template:Eicosanoids","/wiki/Template:Fatty_acids","/wiki/Template:Fatty-acid_metabolism_intermediates","/wiki/Template:Phospholipids","/wiki/Template:Sphingolipids","/wiki/Template:Cholesterol_and_steroid_intermediates","/wiki/Template:Nucleic_acids","/wiki/Template:Nucleobases,_nucleosides,_and_nucleotides","/wiki/Template:Nucleotide_metabolism_intermediates","/wiki/Template:Protein_topics","/wiki/Template:AminoAcids","/wiki/Template:Amino_acid_metabolism_intermediates","/wiki/Template:Tetrapyrroles","/wiki/Template:Heme_metabolism_intermediates","//en.wikipedia.org/w/index.php?title=Special:CentralAutoLogin/start&type=1x1&from=enwiki","http://en.wikipedia.org/w/index.php?title=Dihydroxyacetone&oldid=558240800","/wiki/Help:Categories","/wiki/Category:Cosmetics_chemicals","/wiki/Category:Diols","/wiki/Category:Ketoses","/wiki/Category:Trioses","/wiki/Category:Pages_with_citations_having_bare_URLs","/wiki/Category:Articles_with_changed_EBI_identifier","/wiki/Category:Chemboxes_which_contain_changes_to_verified_fields","/wiki/Category:All_articles_with_unsourced_statements","/wiki/Category:Articles_with_unsourced_statements_from_March_2007","/wiki/Category:Articles_with_unsourced_statements_from_December_2008","/wiki/Category:Use_dmy_dates_from_January_2012","/w/index.php?title=Special:UserLogin&returnto=Dihydroxyacetone&type=signup","/w/index.php?title=Special:UserLogin&returnto=Dihydroxyacetone","/wiki/Dihydroxyacetone","/wiki/Talk:Dihydroxyacetone","#","/wiki/Dihydroxyacetone","/w/index.php?title=Dihydroxyacetone&action=edit","/w/index.php?title=Dihydroxyacetone&action=history","#","/w/index.php","//bits.wikimedia.org/static-1.22wmf10/skins/vector/images/search-ltr.png?303-4","/wiki/Main_Page","/wiki/Main_Page","/wiki/Portal:Contents","/wiki/Portal:Featured_content","/wiki/Portal:Current_events","/wiki/Special:Random","//donate.wikimedia.org/wiki/Special:FundraiserRedirector?utm_source=donate&utm_medium=sidebar&utm_campaign=C13_en.wikipedia.org&uselang=en","/wiki/Help:Contents","/wiki/Wikipedia:About","/wiki/Wikipedia:Community_portal","/wiki/Special:RecentChanges","//en.wikipedia.org/wiki/Wikipedia:Contact_us","/wiki/Special:WhatLinksHere/Dihydroxyacetone","/wiki/Special:RecentChangesLinked/Dihydroxyacetone","/wiki/Wikipedia:File_Upload_Wizard","/wiki/Special:SpecialPages","/w/index.php?title=Dihydroxyacetone&oldid=558240800","/w/index.php?title=Dihydroxyacetone&action=info","//www.wikidata.org/wiki/Q409618","/w/index.php?title=Special:Cite&page=Dihydroxyacetone&id=558240800","/w/index.php?title=Special:Book&bookcmd=book_creator&referer=Dihydroxyacetone","/w/index.php?title=Special:Book&bookcmd=render_article&arttitle=Dihydroxyacetone&oldid=558240800&writer=rl","/w/index.php?title=Dihydroxyacetone&printable=yes","//ca.wikipedia.org/wiki/Dihidroxiacetona","//de.wikipedia.org/wiki/Dihydroxyaceton","//el.wikipedia.org/wiki/%CE%94%CE%B9%CF%85%CE%B4%CF%81%CE%BF%CE%BE%CF%85%CE%B1%CE%BA%CE%B5%CF%84%CF%8C%CE%BD%CE%B7","//es.wikipedia.org/wiki/Dihidroxiacetona","//fr.wikipedia.org/wiki/Dihydroxyac%C3%A9tone","//gl.wikipedia.org/wiki/Dihidroxiacetona","//it.wikipedia.org/wiki/Diidrossiacetone","//nl.wikipedia.org/wiki/Dihydroxyaceton","//ja.wikipedia.org/wiki/%E3%82%B8%E3%83%92%E3%83%89%E3%83%AD%E3%82%AD%E3%82%B7%E3%82%A2%E3%82%BB%E3%83%88%E3%83%B3","//pl.wikipedia.org/wiki/Dihydroksyaceton","//pt.wikipedia.org/wiki/Di-hidroxiacetona","//ru.wikipedia.org/wiki/%D0%94%D0%B8%D0%B3%D0%B8%D0%B4%D1%80%D0%BE%D0%BA%D1%81%D0%B8%D0%B0%D1%86%D0%B5%D1%82%D0%BE%D0%BD","//sr.wikipedia.org/wiki/Dihidroksiaceton","//sh.wikipedia.org/wiki/Dihidroksiaceton","//fi.wikipedia.org/wiki/Dihydroksiasetoni","//sv.wikipedia.org/wiki/Dihydroxiaceton","//tr.wikipedia.org/wiki/Dihidroksi_aseton","//zh.wikipedia.org/wiki/%E4%BA%8C%E7%BE%9F%E4%B8%99%E9%85%AE","#","//www.wikidata.org/wiki/Q409618#sitelinks-wikipedia","//en.wikipedia.org/wiki/Wikipedia:Text_of_Creative_Commons_Attribution-ShareAlike_3.0_Unported_License","//creativecommons.org/licenses/by-sa/3.0/","//wikimediafoundation.org/wiki/Terms_of_Use","//wikimediafoundation.org/wiki/Privacy_policy","//www.wikimediafoundation.org/","//wikimediafoundation.org/wiki/Privacy_policy","/wiki/Wikipedia:About","/wiki/Wikipedia:General_disclaimer","//en.wikipedia.org/wiki/Wikipedia:Contact_us","//en.m.wikipedia.org/wiki/Dihydroxyacetone","//wikimediafoundation.org/","//bits.wikimedia.org/images/wikimedia-button.png","//www.mediawiki.org/","//bits.wikimedia.org/static-1.22wmf10/skins/common/images/poweredby_mediawiki_88x31.png","//bits.wikimedia.org/en.wikipedia.org/load.php?debug=false&lang=en&modules=site&only=scripts&skin=vector&*"],"instances":["chemistry","united_states"],"pdf":["http://ec.europa.eu/health/scientific_committees/consumer_safety/docs/sccs_o_048.pdf"],"categories":["Cosmetics chemicals","Diols","Ketoses","Trioses"],"headings":["Chemistry","Biology","Uses","References","External links"],"image":["//upload.wikimedia.org/wikipedia/commons/thumb/2/28/Dihydroxyacetone.png/200px-Dihydroxyacetone.png","//upload.wikimedia.org/wikipedia/en/thumb/f/fb/Yes_check.svg/7px-Yes_check.svg.png","//upload.wikimedia.org/wikipedia/en/thumb/f/fb/Yes_check.svg/7px-Yes_check.svg.png","//upload.wikimedia.org/wikipedia/en/thumb/f/fb/Yes_check.svg/7px-Yes_check.svg.png","//upload.wikimedia.org/wikipedia/en/thumb/f/fb/Yes_check.svg/7px-Yes_check.svg.png","//upload.wikimedia.org/wikipedia/en/thumb/f/fb/Yes_check.svg/7px-Yes_check.svg.png","//upload.wikimedia.org/wikipedia/commons/thumb/a/a2/X_mark.svg/7px-X_mark.svg.png","//upload.wikimedia.org/wikipedia/en/thumb/f/fb/Yes_check.svg/7px-Yes_check.svg.png","//upload.wikimedia.org/wikipedia/en/thumb/f/fb/Yes_check.svg/7px-Yes_check.svg.png","//upload.wikimedia.org/wikipedia/commons/thumb/c/c3/GHS-pictogram-exclam.svg/50px-GHS-pictogram-exclam.svg.png","//upload.wikimedia.org/wikipedia/commons/thumb/a/a2/X_mark.svg/14px-X_mark.svg.png","//upload.wikimedia.org/wikipedia/en/thumb/f/fb/Yes_check.svg/10px-Yes_check.svg.png","//upload.wikimedia.org/wikipedia/commons/thumb/a/a2/X_mark.svg/10px-X_mark.svg.png","//upload.wikimedia.org/wikipedia/commons/thumb/3/3b/Speakerlink-new.svg/11px-Speakerlink-new.svg.png","//en.wikipedia.org/w/index.php?title=Special:CentralAutoLogin/start&type=1x1&from=enwiki","//bits.wikimedia.org/static-1.22wmf10/skins/vector/images/search-ltr.png?303-4","//bits.wikimedia.org/images/wikimedia-button.png","//bits.wikimedia.org/static-1.22wmf10/skins/common/images/poweredby_mediawiki_88x31.png"],"tags":[["dimer","chemistry"],["food_and_drug_administration","united_states"]],"members":["dimer","food_and_drug_administration"],"related":["Carbohydrate","Triose","Sunless_tanning","Sugar_beet","Sugar_cane","Glycerin","Hygroscopic","Ketose","Chiral_center","Optical_activity","Dimer_(chemistry)","Ethanol","Diethyl_ether","Acetone","Toluene","Glyceraldehyde","Glycerol","Hydrogen_peroxide","Ferrous","Catalyst","Glycerol","Structural_isomer","Dihydroxyacetone_phosphate","Glycolysis","X-ray","Glycogen_storage_disease","Pigmentation","Stratum_corneum","Vitiligo","Maillard_reaction","Amino_acid","Keratin","Melanoidin","Melanin","Ultraviolet","Glycerol","Ketogenesis","Proline","Sunless_tanning","Food_and_Drug_Administration_(United_States)","Erythrulose","Sunless_tanning","Airbrush","Skin_Cancer_Foundation","American_Academy_of_Dermatology_Association","Canadian_Dermatology_Association","American_Medical_Association","Contact_dermatitis","Contact_dermatitis","Preservatives"]}