{"cursor":"24467","size":15,"audio":[],"currentlang":"en","article":"\n, approximated as a magnetic dipole. However, the \"N\" and \"S\" (north and south)\npoles are labeled here geographically, which is the opposite of the convention\nfor labeling the poles of a magnetic dipole moment]]\n\nIn physics, there are several kinds of 'dipole': *An electric dipole is a\nseparation of positive and negative charges. The simplest example of this is a\npair of electric charges of equal magnitude but opposite sign, separated by some\n(usually small) distance. A permanent electric dipole is called an electret. *A\nmagnetic dipole is a closed circulation of electric current. A simple example of\nthis is a single loop of wire with some constant current flowing through\nit. {{cite book\n | last = Brau | first = Charles A. title=Modern Problems in Classical\n | Electrodynamics publisher=Oxford University Press year=2004 isbn=0-19-514665-\n | 4\n }} {{cite book\n | last = Griffiths | first = David J. | title=Introduction to Electrodynamics\n | edition = 3rd publisher=Prentice Hall\n |year=1999 |isbn=0-13-805326-X }} *A flow dipole is a separation of a\n sink and a source. In a highly viscous medium, a two-beater kitchen mixer\n causes a dipole flow field. *An acoustic dipole is the oscillating version of\n it. A simple example is a dipole speaker. *Any scalar or other field may have a\n dipole moment.\n\nDipoles can be characterized by their dipole moment, a vector quantity. For the\nsimple electric dipole given above, the electric dipole moment points from the\nnegative charge towards the positive charge, and has a magnitude equal to the\nstrength of each charge times the separation between the charges. (To be\nprecise: for the definition of the dipole moment one should always consider the\n\"dipole limit\", where e.g. the distance of the generating charges should\nconverge to 0, while simultaneously the charge strength should diverge to\ninfinity in such a way that the product remains a positive constant.)\n\nFor the current loop, the magnetic dipole moment points through the loop\n(according to the right hand grip rule), with a magnitude equal to the current\nin the loop times the area of the loop.\n\nIn addition to current loops, the electron, among other fundamental particles,\nhas a magnetic dipole moment. This is because it generates a magnetic field that\nis identical to that generated by a very small current loop. However, to the\nbest of our knowledge, the electron's magnetic moment is not due to a current\nloop, but is instead an intrinsic property of the electron. It is\nalso possible that the electron has an electric dipole moment, although this has\nnot yet been observed (see electron electric dipole moment for more\ninformation). of a horizontally oriented electrical dipole of finite size.\nStrong colors indicate highest and lowest potential (where the opposing charges\nof the dipole are located).]]\n\nA permanent magnet, such as a bar magnet, owes its magnetism to the intrinsic\nmagnetic dipole moment of the electron. The two ends of a bar magnet are\nreferred to as poles (not to be confused with monopoles), and are labeled\n\"north\" and \"south.\" The dipole moment of the bar magnet points from its\nmagnetic south to its magnetic north pole. The north pole of a bar magnet in a\ncompass points north. However, this means that Earth's geomagnetic north pole is\nthe south pole of its dipole moment, and vice versa.\n\nThe only known mechanisms for the creation of magnetic dipoles are by current\nloops or quantum-mechanical spin since the existence of magnetic monopoles has\nnever been experimentally demonstrated.\n\nThe term comes from the Greek δίς (dis), \"twice\" [http://www.perseus.tufts.-\nedu/hopper/text?doc=Perseus%3Atext%3A1999.04.0057%3Aentry%3Ddi%2Fs δίς], Henry\nGeorge Liddell, Robert Scott, A Greek-English Lexicon, on Perseus and\nπόλος (pòlos), \"axis\". [http://www.perseus.tufts.edu/hopper/text?doc=Perseu-\ns%3Atext%3A1999.04.0057%3Aentry%3Dpo%2Flos πόλος], Henry George Liddell, Robert\nScott, A Greek-English Lexicon, on Perseus\n","linknr":355,"url":"Dipole","recorded":1374546175,"links":["/w/index.php?title=Dipole&action=edit","/w/index.php?title=Dipole&action=edit","//bits.wikimedia.org/favicon/wikipedia.ico","/w/opensearch_desc.php","//en.wikipedia.org/w/api.php?action=rsd","//creativecommons.org/licenses/by-sa/3.0/","/w/index.php?title=Special:RecentChanges&feed=atom","//bits.wikimedia.org/en.wikipedia.org/load.php?debug=false&lang=en&modules=ext.gadget.DRN-wizard%2CReferenceTooltips%2Ccharinsert%2Cteahouse%7Cext.rtlcite%2Cwikihiero%7Cext.uls.nojs%7Cmediawiki.legacy.commonPrint%2Cshared%7Cmw.PopUpMediaTransform%7Cskins.vector&only=styles&skin=vector&*","//bits.wikimedia.org/en.wikipedia.org/load.php?debug=false&lang=en&modules=site&only=styles&skin=vector&*","//bits.wikimedia.org/en.wikipedia.org/load.php?debug=false&lang=en&modules=startup&only=scripts&skin=vector&*","//bits.wikimedia.org/geoiplookup","//meta.wikimedia.org","#mw-navigation","#p-search","/wiki/Dipole_(disambiguation)","/wiki/File:VFPt_Dipole_field.svg","//upload.wikimedia.org/wikipedia/commons/thumb/7/70/VFPt_Dipole_field.svg/250px-VFPt_Dipole_field.svg.png","/wiki/File:VFPt_Dipole_field.svg","//bits.wikimedia.org/static-1.22wmf8/skins/common/images/magnify-clip.png","/wiki/Earth%27s_magnetic_field","/wiki/Physics","/wiki/Electric_dipole_moment","/wiki/Electric_charge","/wiki/Electret","/wiki/Magnetic_dipole","/wiki/Electric_current","#cite_note-1","#cite_note-2","/wiki/Dipole_speaker","/wiki/Multipole_expansion","/wiki/Electric_dipole_moment","/wiki/Magnetic_dipole_moment","/wiki/Right_hand_grip_rule","/wiki/Electron","/wiki/Fundamental_particle","/wiki/Magnetic_field","/wiki/Intrinsic","#cite_note-3","/wiki/Electron_electric_dipole_moment","/wiki/File:DipoleContour.jpg","//upload.wikimedia.org/wikipedia/commons/thumb/6/6b/DipoleContour.jpg/250px-DipoleContour.jpg","/wiki/File:DipoleContour.jpg","//bits.wikimedia.org/static-1.22wmf8/skins/common/images/magnify-clip.png","/wiki/Electrostatics#Electrostatic_potential","/wiki/Magnetic_monopole","/wiki/South_pole","/wiki/North_pole","/wiki/Compass","/wiki/Spin_(physics)","/wiki/Magnetic_monopole","/wiki/Greek_language","#cite_note-4","#cite_note-5","#cite_note-6","#Classification","#Molecular_dipoles","#Quantum_mechanical_dipole_operator","#Atomic_dipoles","#Field_of_a_static_magnetic_dipole","#Magnitude","#Vector_form","#Magnetic_vector_potential","#Field_from_an_electric_dipole","#Torque_on_a_dipole","#Dipole_radiation","#See_also","#Notes","#References","#External_links","/w/index.php?title=Dipole&action=edit&section=1","/wiki/File:VFPt_dipole_electric.svg","//upload.wikimedia.org/wikipedia/commons/thumb/d/df/VFPt_dipole_electric.svg/250px-VFPt_dipole_electric.svg.png","/wiki/File:VFPt_dipole_electric.svg","//bits.wikimedia.org/static-1.22wmf8/skins/common/images/magnify-clip.png","/wiki/File:VFPt_dipole_magnetic2.svg","//upload.wikimedia.org/wikipedia/commons/thumb/5/5f/VFPt_dipole_magnetic2.svg/250px-VFPt_dipole_magnetic2.svg.png","/wiki/File:VFPt_dipole_magnetic2.svg","//bits.wikimedia.org/static-1.22wmf8/skins/common/images/magnify-clip.png","/wiki/File:VFPt_dipole_point.svg","//upload.wikimedia.org/wikipedia/commons/thumb/8/81/VFPt_dipole_point.svg/250px-VFPt_dipole_point.svg.png","/wiki/File:VFPt_dipole_point.svg","//bits.wikimedia.org/static-1.22wmf8/skins/common/images/magnify-clip.png","/wiki/Multipole_expansion","/wiki/Magnetic_monopole","/wiki/Spin_(physics)","/wiki/Electron","/w/index.php?title=Dipole&action=edit&section=2","/wiki/Molecule","/wiki/Chemical_polarity","/wiki/Hydrogen_fluoride","/wiki/Electron_density","/wiki/Electric_dipole","/wiki/Magnetic_dipole","/wiki/Peter_Debye","/wiki/Debye","/wiki/Electronegativity","/wiki/Intermolecular_force#Dipole-dipole_interactions","/wiki/Electron","/wiki/Molecule","/wiki/London_dispersion_force","/wiki/Intermolecular_force#Debye_.28induced_dipole.29_force","/wiki/Capacitor","/wiki/Polarizability","/wiki/Dielectric_constant","/wiki/Debye","#cite_note-7","/wiki/Carbon_dioxide","/wiki/Carbon_monoxide","/wiki/Ozone","/wiki/Phosgene","/wiki/Water_vapor","/wiki/Hydrogen_cyanide","/wiki/Cyanamide","/wiki/Potassium_bromide","/wiki/File:Carbon-dioxide-2D-dimensions.svg","//upload.wikimedia.org/wikipedia/commons/thumb/1/1f/Carbon-dioxide-2D-dimensions.svg/160px-Carbon-dioxide-2D-dimensions.svg.png","/wiki/File:Carbon-dioxide-2D-dimensions.svg","//bits.wikimedia.org/static-1.22wmf8/skins/common/images/magnify-clip.png","/wiki/Ionic_bond","/wiki/File:H2O_2D_labelled.svg","//upload.wikimedia.org/wikipedia/commons/thumb/b/b7/H2O_2D_labelled.svg/160px-H2O_2D_labelled.svg.png","/wiki/File:H2O_2D_labelled.svg","//bits.wikimedia.org/static-1.22wmf8/skins/common/images/magnify-clip.png","/wiki/Euclidean_vector#Addition_and_subtraction","/wiki/Bond_dipole_moment","/wiki/Molecular_geometry","/wiki/File:Ozone-resonance-Lewis-2D.png","//upload.wikimedia.org/wikipedia/commons/thumb/a/ae/Ozone-resonance-Lewis-2D.png/400px-Ozone-resonance-Lewis-2D.png","/wiki/Cis-trans_isomerism","/wiki/1,2-dichloroethene","/wiki/File:Cis-1,2-dichloroethene.png","//upload.wikimedia.org/wikipedia/commons/thumb/2/2d/Cis-1%2C2-dichloroethene.png/150px-Cis-1%2C2-dichloroethene.png","/wiki/File:Cis-1,2-dichloroethene.png","//bits.wikimedia.org/static-1.22wmf8/skins/common/images/magnify-clip.png","/wiki/File:Trans-1,2-dichloroethene.png","//upload.wikimedia.org/wikipedia/commons/thumb/a/ad/Trans-1%2C2-dichloroethene.png/150px-Trans-1%2C2-dichloroethene.png","/wiki/File:Trans-1,2-dichloroethene.png","//bits.wikimedia.org/static-1.22wmf8/skins/common/images/magnify-clip.png","/w/index.php?title=Dipole&action=edit&section=3","/wiki/Electron_charge","/wiki/Atomic_number","//upload.wikimedia.org/math/8/0/5/8053b28105c6b2b2bae2377091afd22e.png","/w/index.php?title=Dipole&action=edit&section=4","/wiki/Inversion_in_a_point","//upload.wikimedia.org/math/4/4/4/4440ca5e8d6c3a7902507fe315257f86.png","//upload.wikimedia.org/math/0/f/5/0f5c13c6ec6355d207dc0300e959593d.png","//upload.wikimedia.org/math/6/b/a/6bae1191143ae1f34dd77837a99799b8.png","/wiki/Degenerate_energy_level","//upload.wikimedia.org/math/a/a/e/aae0c457d7db897d824cb2b08011cf7a.png","//upload.wikimedia.org/math/4/7/9/4796ee7fff0a958c0e466ea9c50c9a1f.png","//upload.wikimedia.org/math/5/f/c/5fc6f7231d54760a0f0e2cd4e0b74018.png","//upload.wikimedia.org/math/8/f/b/8fbd4cf93f31b9ab418f51300780e467.png","//upload.wikimedia.org/math/3/0/d/30d045d89a94611ebbe10c940b924dda.png","/wiki/Unitary_operator","//upload.wikimedia.org/math/8/e/3/8e30383d3d4a3d9bef86622aa5b2c284.png","/wiki/Hermitian_adjoint#Definition_for_bounded_operators","//upload.wikimedia.org/math/8/b/3/8b3d3753e40bc5e39ddca644852eac89.png","//upload.wikimedia.org/math/7/d/2/7d21a0a281d223a383a76489bea77633.png","//upload.wikimedia.org/math/5/3/8/53894360b5d072b727a2b840bfba3767.png","/wiki/Stark_effect","/wiki/Parity_(physics)","/wiki/Laplace%E2%80%93Runge%E2%80%93Lenz_vector#Quantum_mechanics_of_the_hydrogen_atom","/w/index.php?title=Dipole&action=edit&section=5","/wiki/Magnet#Two_models_for_magnets:_magnetic_poles_and_atomic_currents","/w/index.php?title=Dipole&action=edit&section=6","//upload.wikimedia.org/math/3/5/3/3537e9deb03b86c197281c34b4ab2f7b.png","/wiki/Tesla_(unit)","/wiki/Radian","/wiki/Degree_(angle)","#cite_note-8","/wiki/Joule","/wiki/Tesla_(unit)","/wiki/Permeability_(electromagnetism)","/wiki/Henry_(unit)","//upload.wikimedia.org/math/0/a/8/0a81039c4d76e742328b4f6a431e0c98.png","//upload.wikimedia.org/math/8/d/0/8d0fff5fdb91b2a7788309fc2127314e.png","/w/index.php?title=Dipole&action=edit&section=7","//upload.wikimedia.org/math/5/f/5/5f599f874c8e4df64feda84e13b09405.png","//upload.wikimedia.org/math/0/6/a/06a24caaa33bf0d2b11453517c680d38.png","/wiki/Dirac_delta_function","#cite_note-delta_function-9","/w/index.php?title=Dipole&action=edit&section=8","/wiki/Vector_potential","//upload.wikimedia.org/math/0/b/6/0b6917e6767a4d6c5dc01124c758cff0.png","/w/index.php?title=Dipole&action=edit&section=9","/wiki/Electrostatic_potential","//upload.wikimedia.org/math/6/a/b/6ab039150809d5a8ac0b91267901d278.png","//upload.wikimedia.org/math/6/c/8/6c830bb397e1e9a06d4e8ad23f2ed83c.png","/wiki/Electric_dipole_moment","/wiki/Permittivity_of_free_space","/wiki/Multipole_expansion#Expansion_in_Cartesian_coordinates","/wiki/Electric_field","/wiki/Gradient","//upload.wikimedia.org/math/1/3/4/134903c8e2bdf92a4cadf1a7205c57ab.png","/wiki/Dirac_delta_function","#cite_note-delta_function-9","/w/index.php?title=Dipole&action=edit&section=10","/wiki/Electric_field","/wiki/Electric_field","/wiki/Magnetic_field","/wiki/Force","/wiki/Torque","//upload.wikimedia.org/math/f/1/f/f1fd12fa8763488ddc29fd8bddfec7f9.png","/wiki/Electrical_dipole_moment","//upload.wikimedia.org/math/e/a/d/eadd723bd2bafb17d9dbdca5d7f2785e.png","/wiki/Magnetic_dipole_moment","//upload.wikimedia.org/math/7/9/8/7981d6fc7d7c5600aacf21d4ff959396.png","//upload.wikimedia.org/math/e/c/a/eca43be1656c9abc1b37e410be54e66b.png","/w/index.php?title=Dipole&action=edit&section=11","/wiki/File:Dipole.gif","//upload.wikimedia.org/wikipedia/commons/thumb/3/3d/Dipole.gif/250px-Dipole.gif","/wiki/File:Dipole.gif","//bits.wikimedia.org/static-1.22wmf8/skins/common/images/magnify-clip.png","/wiki/Contour_line","/wiki/Dipole_antenna","//upload.wikimedia.org/math/6/d/7/6d799c635ad7e249e6fe341bbe2aacb4.png","/wiki/Angular_frequency","//upload.wikimedia.org/math/a/0/6/a06d3b8afae0ef96396586732f895e1d.png","//upload.wikimedia.org/math/7/f/a/7fa2b460c4f719852cbeb19522629488.png","//upload.wikimedia.org/math/1/e/2/1e276d3ced95445481dec6fda5f7dff7.png","//upload.wikimedia.org/math/7/3/7/7373dce4b26d2535c5535d155e11808e.png","//upload.wikimedia.org/math/7/5/6/7566d97b86a15df0aeac08bd184e590b.png","//upload.wikimedia.org/math/5/9/8/598425e64f7db03a080db9f59f5a57c3.png","/wiki/Spherical_harmonics","/w/index.php?title=Dipole&action=edit&section=12","/wiki/Polarization_density","/wiki/Magnet#Two_models_for_magnets:_magnetic_poles_and_atomic_currents","/wiki/Dipole_model_of_the_Earth%27s_magnetic_field","/wiki/Electret","/wiki/Indian_Ocean_Dipole","/wiki/Magnetic_dipole-dipole_interaction","/wiki/Spin_magnetic_moment","/wiki/Magnetic_monopole","/wiki/Solid_harmonics","/wiki/Axial_multipole_moments","/wiki/Cylindrical_multipole_moments","/wiki/Spherical_multipole_moments","/wiki/Laplace_expansion_(potential)","/wiki/Molecular_solid","/w/index.php?title=Dipole&action=edit&section=13","#cite_ref-8","#cite_ref-delta_function_9-0","#cite_ref-delta_function_9-1","/w/index.php?title=Dipole&action=edit&section=14","#cite_ref-1","/wiki/International_Standard_Book_Number","/wiki/Special:BookSources/0-19-514665-4","#cite_ref-2","/wiki/International_Standard_Book_Number","/wiki/Special:BookSources/0-13-805326-X","#cite_ref-3","/wiki/International_Standard_Book_Number","/wiki/Special:BookSources/978-0-13-124405-4","#cite_ref-4","http://www.perseus.tufts.edu/hopper/text?doc=Perseus%3Atext%3A1999.04.0057%3Aentry%3Ddi%2Fs","#cite_ref-5","http://www.perseus.tufts.edu/hopper/text?doc=Perseus%3Atext%3A1999.04.0057%3Aentry%3Dpo%2Flos","#cite_ref-6","/wiki/Oxford_English_Dictionary","/wiki/Oxford_University_Press","#cite_ref-7","/wiki/International_Standard_Book_Number","/wiki/Special:BookSources/0-8493-0465-2","/w/index.php?title=Dipole&action=edit&section=15","http://personal-pages.ps.ic.ac.uk/~achremos/Applet3-page.htm","http://geomag.usgs.gov","http://lightandmatter.com/html_books/4em/ch05/ch05.html","http://demonstrations.wolfram.com/ElectricDipolePotential/","/wiki/Stephen_Wolfram","http://demonstrations.wolfram.com/EnergyDensityOfAMagneticDipole/","/wiki/Wolfram_Demonstrations_Project","//en.wikipedia.org/w/index.php?title=Special:CentralAutoLogin/start&type=1x1&from=enwiki","http://en.wikipedia.org/w/index.php?title=Dipole&oldid=555456095","/wiki/Help:Categories","/wiki/Category:Electromagnetism","/wiki/Category:Chemical_properties","/wiki/Category:Concepts_in_physics","/w/index.php?title=Special:UserLogin&returnto=Dipole&type=signup","/w/index.php?title=Special:UserLogin&returnto=Dipole","/wiki/Dipole","/wiki/Talk:Dipole","#","/wiki/Dipole","/w/index.php?title=Dipole&action=edit","/w/index.php?title=Dipole&action=history","#","/w/index.php","//bits.wikimedia.org/static-1.22wmf10/skins/vector/images/search-ltr.png?303-4","/wiki/Main_Page","/wiki/Main_Page","/wiki/Portal:Contents","/wiki/Portal:Featured_content","/wiki/Portal:Current_events","/wiki/Special:Random","//donate.wikimedia.org/wiki/Special:FundraiserRedirector?utm_source=donate&utm_medium=sidebar&utm_campaign=C13_en.wikipedia.org&uselang=en","/wiki/Help:Contents","/wiki/Wikipedia:About","/wiki/Wikipedia:Community_portal","/wiki/Special:RecentChanges","//en.wikipedia.org/wiki/Wikipedia:Contact_us","/wiki/Special:WhatLinksHere/Dipole","/wiki/Special:RecentChangesLinked/Dipole","/wiki/Wikipedia:File_Upload_Wizard","/wiki/Special:SpecialPages","/w/index.php?title=Dipole&oldid=555456095","/w/index.php?title=Dipole&action=info","//www.wikidata.org/wiki/Q215589","/w/index.php?title=Special:Cite&page=Dipole&id=555456095","/w/index.php?title=Special:Book&bookcmd=book_creator&referer=Dipole","/w/index.php?title=Special:Book&bookcmd=render_article&arttitle=Dipole&oldid=555456095&writer=rl","/w/index.php?title=Dipole&printable=yes","//ar.wikipedia.org/wiki/%D8%AB%D9%86%D8%A7%D8%A6%D9%8A_%D9%82%D8%B7%D8%A8","//be.wikipedia.org/wiki/%D0%AD%D0%BB%D0%B5%D0%BA%D1%82%D1%80%D1%8B%D1%87%D0%BD%D1%8B_%D0%B4%D1%8B%D0%BF%D0%BE%D0%BB%D1%8C","//be-x-old.wikipedia.org/wiki/%D0%AD%D0%BB%D0%B5%D0%BA%D1%82%D1%80%D1%8B%D1%87%D0%BD%D1%8B_%D0%B4%D1%8B%D0%BF%D0%BE%D0%BB%D1%8C","//bg.wikipedia.org/wiki/%D0%94%D0%B8%D0%BF%D0%BE%D0%BB","//ca.wikipedia.org/wiki/Dipol","//cs.wikipedia.org/wiki/Elektrick%C3%BD_dip%C3%B3l","//da.wikipedia.org/wiki/Dipol","//de.wikipedia.org/wiki/Dipol","//et.wikipedia.org/wiki/Dipool","//es.wikipedia.org/wiki/Dipolo_el%C3%A9ctrico","//fa.wikipedia.org/wiki/%D8%AF%D9%88%D9%82%D8%B7%D8%A8%DB%8C_%D8%A7%D9%84%DA%A9%D8%AA%D8%B1%DB%8C%DA%A9%DB%8C","//fr.wikipedia.org/wiki/Dip%C3%B4le_%C3%A9lectrique","//hi.wikipedia.org/wiki/%E0%A4%A6%E0%A5%8D%E0%A4%B5%E0%A4%BF%E0%A4%A7%E0%A5%8D%E0%A4%B0%E0%A5%81%E0%A4%B5","//it.wikipedia.org/wiki/Dipolo_elettrico","//he.wikipedia.org/wiki/%D7%93%D7%99%D7%A4%D7%95%D7%9C","//ka.wikipedia.org/wiki/%E1%83%93%E1%83%98%E1%83%9E%E1%83%9D%E1%83%9A%E1%83%98","//mr.wikipedia.org/wiki/%E0%A4%9A%E0%A5%81%E0%A4%82%E0%A4%AC%E0%A4%95%E0%A5%80_%E0%A4%A7%E0%A5%8D%E0%A4%B0%E0%A5%81%E0%A4%B5","//nl.wikipedia.org/wiki/Dipool","//ja.wikipedia.org/wiki/%E5%8F%8C%E6%A5%B5%E5%AD%90","//no.wikipedia.org/wiki/Dipol","//nn.wikipedia.org/wiki/Dipol","//pms.wikipedia.org/wiki/Dip%C3%B2lo_el%C3%A9trich","//pl.wikipedia.org/wiki/Dipol","//ru.wikipedia.org/wiki/%D0%94%D0%B8%D0%BF%D0%BE%D0%BB%D1%8C_(%D1%8D%D0%BB%D0%B5%D0%BA%D1%82%D1%80%D0%BE%D0%B4%D0%B8%D0%BD%D0%B0%D0%BC%D0%B8%D0%BA%D0%B0)","//sl.wikipedia.org/wiki/Elektri%C4%8Dni_dipol","//sr.wikipedia.org/wiki/%D0%94%D0%B8%D0%BF%D0%BE%D0%BB","//ta.wikipedia.org/wiki/%E0%AE%87%E0%AE%B0%E0%AF%81%E0%AE%AE%E0%AF%81%E0%AE%A9%E0%AF%88%E0%AE%AF%E0%AE%BF","//zh.wikipedia.org/wiki/%E5%81%B6%E6%A5%B5%E5%AD%90","#","//www.wikidata.org/wiki/Q215589#sitelinks-wikipedia","//en.wikipedia.org/wiki/Wikipedia:Text_of_Creative_Commons_Attribution-ShareAlike_3.0_Unported_License","//creativecommons.org/licenses/by-sa/3.0/","//wikimediafoundation.org/wiki/Terms_of_Use","//wikimediafoundation.org/wiki/Privacy_policy","//www.wikimediafoundation.org/","//wikimediafoundation.org/wiki/Privacy_policy","/wiki/Wikipedia:About","/wiki/Wikipedia:General_disclaimer","//en.wikipedia.org/wiki/Wikipedia:Contact_us","//en.m.wikipedia.org/wiki/Dipole","//wikimediafoundation.org/","//bits.wikimedia.org/images/wikimedia-button.png","//www.mediawiki.org/","//bits.wikimedia.org/static-1.22wmf10/skins/common/images/poweredby_mediawiki_88x31.png","//bits.wikimedia.org/en.wikipedia.org/load.php?debug=false&lang=en&modules=site&only=scripts&skin=vector&*"],"instances":["potential","physics","angle","physics","electromagnetism","unit","unit"],"pdf":[],"categories":["Electromagnetism","Chemical properties","Concepts in physics"],"headings":["Classification","Molecular dipoles","Quantum mechanical dipole operator","Atomic dipoles","Field of a static magnetic dipole","Field from an electric dipole","Torque on a dipole","Dipole radiation","See also","Notes","References","External links"],"image":["//upload.wikimedia.org/wikipedia/commons/thumb/7/70/VFPt_Dipole_field.svg/250px-VFPt_Dipole_field.svg.png","//bits.wikimedia.org/static-1.22wmf8/skins/common/images/magnify-clip.png","//upload.wikimedia.org/wikipedia/commons/thumb/6/6b/DipoleContour.jpg/250px-DipoleContour.jpg","//bits.wikimedia.org/static-1.22wmf8/skins/common/images/magnify-clip.png","//upload.wikimedia.org/wikipedia/commons/thumb/d/df/VFPt_dipole_electric.svg/250px-VFPt_dipole_electric.svg.png","//bits.wikimedia.org/static-1.22wmf8/skins/common/images/magnify-clip.png","//upload.wikimedia.org/wikipedia/commons/thumb/5/5f/VFPt_dipole_magnetic2.svg/250px-VFPt_dipole_magnetic2.svg.png","//bits.wikimedia.org/static-1.22wmf8/skins/common/images/magnify-clip.png","//upload.wikimedia.org/wikipedia/commons/thumb/8/81/VFPt_dipole_point.svg/250px-VFPt_dipole_point.svg.png","//bits.wikimedia.org/static-1.22wmf8/skins/common/images/magnify-clip.png","//upload.wikimedia.org/wikipedia/commons/thumb/1/1f/Carbon-dioxide-2D-dimensions.svg/160px-Carbon-dioxide-2D-dimensions.svg.png","//bits.wikimedia.org/static-1.22wmf8/skins/common/images/magnify-clip.png","//upload.wikimedia.org/wikipedia/commons/thumb/b/b7/H2O_2D_labelled.svg/160px-H2O_2D_labelled.svg.png","//bits.wikimedia.org/static-1.22wmf8/skins/common/images/magnify-clip.png","//upload.wikimedia.org/wikipedia/commons/thumb/a/ae/Ozone-resonance-Lewis-2D.png/400px-Ozone-resonance-Lewis-2D.png","//upload.wikimedia.org/wikipedia/commons/thumb/2/2d/Cis-1%2C2-dichloroethene.png/150px-Cis-1%2C2-dichloroethene.png","//bits.wikimedia.org/static-1.22wmf8/skins/common/images/magnify-clip.png","//upload.wikimedia.org/wikipedia/commons/thumb/a/ad/Trans-1%2C2-dichloroethene.png/150px-Trans-1%2C2-dichloroethene.png","//bits.wikimedia.org/static-1.22wmf8/skins/common/images/magnify-clip.png","//upload.wikimedia.org/math/8/0/5/8053b28105c6b2b2bae2377091afd22e.png","//upload.wikimedia.org/math/4/4/4/4440ca5e8d6c3a7902507fe315257f86.png","//upload.wikimedia.org/math/0/f/5/0f5c13c6ec6355d207dc0300e959593d.png","//upload.wikimedia.org/math/6/b/a/6bae1191143ae1f34dd77837a99799b8.png","//upload.wikimedia.org/math/a/a/e/aae0c457d7db897d824cb2b08011cf7a.png","//upload.wikimedia.org/math/4/7/9/4796ee7fff0a958c0e466ea9c50c9a1f.png","//upload.wikimedia.org/math/5/f/c/5fc6f7231d54760a0f0e2cd4e0b74018.png","//upload.wikimedia.org/math/8/f/b/8fbd4cf93f31b9ab418f51300780e467.png","//upload.wikimedia.org/math/3/0/d/30d045d89a94611ebbe10c940b924dda.png","//upload.wikimedia.org/math/8/e/3/8e30383d3d4a3d9bef86622aa5b2c284.png","//upload.wikimedia.org/math/8/b/3/8b3d3753e40bc5e39ddca644852eac89.png","//upload.wikimedia.org/math/7/d/2/7d21a0a281d223a383a76489bea77633.png","//upload.wikimedia.org/math/5/3/8/53894360b5d072b727a2b840bfba3767.png","//upload.wikimedia.org/math/3/5/3/3537e9deb03b86c197281c34b4ab2f7b.png","//upload.wikimedia.org/math/0/a/8/0a81039c4d76e742328b4f6a431e0c98.png","//upload.wikimedia.org/math/8/d/0/8d0fff5fdb91b2a7788309fc2127314e.png","//upload.wikimedia.org/math/5/f/5/5f599f874c8e4df64feda84e13b09405.png","//upload.wikimedia.org/math/0/6/a/06a24caaa33bf0d2b11453517c680d38.png","//upload.wikimedia.org/math/0/b/6/0b6917e6767a4d6c5dc01124c758cff0.png","//upload.wikimedia.org/math/6/a/b/6ab039150809d5a8ac0b91267901d278.png","//upload.wikimedia.org/math/6/c/8/6c830bb397e1e9a06d4e8ad23f2ed83c.png","//upload.wikimedia.org/math/1/3/4/134903c8e2bdf92a4cadf1a7205c57ab.png","//upload.wikimedia.org/math/f/1/f/f1fd12fa8763488ddc29fd8bddfec7f9.png","//upload.wikimedia.org/math/e/a/d/eadd723bd2bafb17d9dbdca5d7f2785e.png","//upload.wikimedia.org/math/7/9/8/7981d6fc7d7c5600aacf21d4ff959396.png","//upload.wikimedia.org/math/e/c/a/eca43be1656c9abc1b37e410be54e66b.png","//upload.wikimedia.org/wikipedia/commons/thumb/3/3d/Dipole.gif/250px-Dipole.gif","//bits.wikimedia.org/static-1.22wmf8/skins/common/images/magnify-clip.png","//upload.wikimedia.org/math/6/d/7/6d799c635ad7e249e6fe341bbe2aacb4.png","//upload.wikimedia.org/math/a/0/6/a06d3b8afae0ef96396586732f895e1d.png","//upload.wikimedia.org/math/7/f/a/7fa2b460c4f719852cbeb19522629488.png","//upload.wikimedia.org/math/1/e/2/1e276d3ced95445481dec6fda5f7dff7.png","//upload.wikimedia.org/math/7/3/7/7373dce4b26d2535c5535d155e11808e.png","//upload.wikimedia.org/math/7/5/6/7566d97b86a15df0aeac08bd184e590b.png","//upload.wikimedia.org/math/5/9/8/598425e64f7db03a080db9f59f5a57c3.png","//en.wikipedia.org/w/index.php?title=Special:CentralAutoLogin/start&type=1x1&from=enwiki","//bits.wikimedia.org/static-1.22wmf10/skins/vector/images/search-ltr.png?303-4","//bits.wikimedia.org/images/wikimedia-button.png","//bits.wikimedia.org/static-1.22wmf10/skins/common/images/poweredby_mediawiki_88x31.png"],"tags":[["spin","physics"],["spin","physics"],["parity","physics"],["tesla","unit"],["degree","angle"],["tesla","unit"],["permeability","electromagnetism"],["henry","unit"],["laplace_expansion","potential"]],"members":["laplace_expansion","spin","degree","parity","permeability","henry","tesla"],"related":["Physics","Electric_dipole_moment","Electric_charge","Electret","Magnetic_dipole","Electric_current","Dipole_speaker","Multipole_expansion","Electric_dipole_moment","Magnetic_dipole_moment","Right_hand_grip_rule","Electron","Fundamental_particle","Magnetic_field","Intrinsic","Electron_electric_dipole_moment","Magnetic_monopole","South_pole","North_pole","Compass","Spin_(physics)","Magnetic_monopole","Greek_language","Multipole_expansion","Magnetic_monopole","Spin_(physics)","Electron","Ammonia","Molecule","Chemical_polarity","Hydrogen_fluoride","Electron_density","Electric_dipole","Magnetic_dipole","Peter_Debye","Electronegativity","Electron","Molecule","London_dispersion_force","Capacitor","Polarizability","Dielectric_constant","Debye","Carbon_dioxide","Carbon_monoxide","Ozone","Phosgene","Water_vapor","Hydrogen_cyanide","Cyanamide","Potassium_bromide","Ionic_bond","Bond_dipole_moment","Molecular_geometry","Cis-trans_isomerism","1,2-dichloroethene","Electron_charge","Atomic_number","Intermolecular_force","Inversion_in_a_point","Degenerate_energy_level","Unitary_operator","Stark_effect","Parity_(physics)","Tesla_(unit)","Radian","Degree_(angle)","Joule","Tesla_(unit)","Permeability_(electromagnetism)","Henry_(unit)","Dirac_delta_function","Vector_potential","Intermolecular_force","Electrostatic_potential","Electric_dipole_moment","Permittivity_of_free_space","Electric_field","Gradient","Dirac_delta_function","Electric_field","Electric_field","Magnetic_field","Force","Torque","Electrical_dipole_moment","Magnetic_dipole_moment","Angular_frequency","Spherical_harmonics","Polarization_density","Dipole_model_of_the_Earth's_magnetic_field","Electret","Indian_Ocean_Dipole","Magnetic_dipole-dipole_interaction","Spin_magnetic_moment","Magnetic_monopole","Solid_harmonics","Axial_multipole_moments","Cylindrical_multipole_moments","Spherical_multipole_moments","Laplace_expansion_(potential)","Molecular_solid","Stephen_Wolfram","Wolfram_Demonstrations_Project"]}