{"cursor":"2443","size":15,"audio":[],"currentlang":"en","article":"\n{{Chembox\n| Name = γ-Carotene ImageFile = Gamma-carotene.svg ImageSize = 250px IUPACName =\n| β,ψ-Carotene SystematicName = 2-((1E,3E,5E,7E,9E,11E,13E,15E,17E,19E)-3,7,12,16,20,24-hexamethylpentacosa-\n| 1,3,5,7,9,11,13,15,17,19,23-undecaen-1-yl)-1,3,3-trimethylcyclohex-1-ene\n| OtherNames = β,psi-Carotene Section1 = {{Chembox Identifiers CASNo = 472-93-5\n| PubChem = 5280791 ChemSpiderID = 4444349 SMILES = C(/C1=C(/CCCC1(C)C)C)=C\\C(=-\n| C\\C=C\\C(=C\\C=C\\C=C(\\C=C\\C=C(\\C=C\\C=C(/C)CC\\C=C(/C)C)C)C)C)C InChI = 1/C40H56/c1-32(2)18-13-21-35(5)24-15-26-36(6)25-14-22-33(3)19-11-12-20-\n| 34(4)23-16-27-37(7)29-30-39-38(8)28-17-31-40(39,9)10/h11-12,14-16,18-20,22-\n| 27,29-30H,13,17,21,28,31H2,1-10H3/b12-11+,22-14+,23-16+,26-15+,30-29+,33-\n| 19+,34-20+,35-24+,36-25+,37-27+ InChIKey = HRQKOYFGHJYEFS-BXOLYSJBBV StdInChI\n| = 1S/C40H56/c1-32(2)18-13-21-35(5)24-15-26-36(6)25-14-22-33(3)19-11-12-20-\n| 34(4)23-16-27-37(7)29-30-39-38(8)28-17-31-40(39,9)10/h11-12,14-16,18-20,22-\n| 27,29-30H,13,17,21,28,31H2,1-10H3/b12-11+,22-14+,23-16+,26-15+,30-29+,33-\n| 19+,34-20+,35-24+,36-25+,37-27+ StdInChIKey = HRQKOYFGHJYEFS-BXOLYSJBSA-N\n  }}\n| Section2 = {{Chembox Properties C=40|H=56 Appearance = Density = MeltingPtCL =\n| 160 MeltingPtCH = 162 Melting_notes =  BoilingPt = Solubility =\n  }}\n| Section3 = {{Chembox Hazards MainHazards = FlashPt = Autoignition =\n  }} }}\n\n'γ-Carotene' is a carotenoid; one of the many isomers of carotene. Along with\nseveral other carotenoids, γ-Carotene is a vitamer of vitamin A in herbivores\nand omnivores. The carotenoids of vitamin A are converted to retinol by the\nenzyme 15-15'-dioxygenase. Carnivores lack this enzyme to convert carotenoids to\nretinol, and therefore, is useless to carnivores.\n","linknr":167,"url":"Gamma-carotene","recorded":1374961982,"links":["/w/index.php?title=Gamma-Carotene&action=edit","/w/index.php?title=Gamma-Carotene&action=edit","//bits.wikimedia.org/favicon/wikipedia.ico","/w/opensearch_desc.php","//en.wikipedia.org/w/api.php?action=rsd","//creativecommons.org/licenses/by-sa/3.0/","/w/index.php?title=Special:RecentChanges&feed=atom","/wiki/Gamma-Carotene","//bits.wikimedia.org/en.wikipedia.org/load.php?debug=false&lang=en&modules=ext.gadget.DRN-wizard%2CReferenceTooltips%2Ccharinsert%2Cteahouse%7Cext.rtlcite%2Cwikihiero%7Cext.uls.nojs%7Cmediawiki.legacy.commonPrint%2Cshared%7Cmw.PopUpMediaTransform%7Cskins.vector&only=styles&skin=vector&*","//bits.wikimedia.org/en.wikipedia.org/load.php?debug=false&lang=en&modules=site&only=styles&skin=vector&*","//bits.wikimedia.org/en.wikipedia.org/load.php?debug=false&lang=en&modules=startup&only=scripts&skin=vector&*","//bits.wikimedia.org/geoiplookup","//meta.wikimedia.org","/w/index.php?title=Gamma-carotene&redirect=no","#mw-navigation","#p-search","/wiki/File:Gamma-carotene.svg","//upload.wikimedia.org/wikipedia/commons/thumb/3/31/Gamma-carotene.svg/250px-Gamma-carotene.svg.png","/wiki/International_Union_of_Pure_and_Applied_Chemistry_nomenclature","/wiki/IUPAC_nomenclature","/wiki/CAS_registry_number","http://www.commonchemistry.org/ChemicalDetail.aspx?ref=472-93-5","/wiki/PubChem","http://pubchem.ncbi.nlm.nih.gov/summary/summary.cgi?cid=5280791","/wiki/ChemSpider","http://www.chemspider.com/4444349","/wiki/Jmol","http://chemapps.stolaf.edu/jmol/jmol.php?model=C%28%2FC1%3DC%28%2FCCCC1%28C%29C%29C%29%3DC%5CC%28%3DC%5CC%3DC%5CC%28%3DC%5CC%3DC%5CC%3DC%28%5CC%3DC%5CC%3DC%28%5CC%3DC%5CC%3DC%28%2FC%29CC%5CC%3DC%28%2FC%29C%29C%29C%29C%29C","/wiki/Simplified_molecular-input_line-entry_system","/wiki/International_Chemical_Identifier","/wiki/Molecular_formula","/wiki/Molar_mass","/wiki/Melting_point","#cite_note-1","/wiki/Standard_state","/wiki/Wikipedia:Chemical_infobox#References","/wiki/Carotenoid","/wiki/Isomer","/wiki/Carotene","/wiki/Carotenoid","/wiki/Vitamer","/wiki/Vitamin_A","/wiki/Retinol","/wiki/Enzyme","/w/index.php?title=15-15%27-dioxygenase&action=edit&redlink=1","/wiki/Retinol","/w/index.php?title=Gamma-Carotene&action=edit&section=1","#cite_ref-1","/wiki/Digital_object_identifier","http://dx.doi.org/10.1002%2Fhlca.19610440414","/wiki/Template:Carotenoids","/wiki/Template_talk:Carotenoids","//en.wikipedia.org/w/index.php?title=Template:Carotenoids&action=edit","/wiki/Carotenoid","/wiki/Carotene","/wiki/Alpha-Carotene","/wiki/Beta-Carotene","/wiki/Delta-Carotene","/wiki/Epsilon-Carotene","/wiki/Zeta-Carotene","/wiki/Lycopene","/wiki/Neurosporene","/wiki/Phytoene","/wiki/Phytofluene","/wiki/Torulene","/w/index.php?title=Lycopersene&action=edit&redlink=1","/wiki/Xanthophyll","/wiki/Antheraxanthin","/wiki/Astaxanthin","/wiki/Canthaxanthin","/wiki/Citranaxanthin","/wiki/Cryptoxanthin","/wiki/Diadinoxanthin","/wiki/Diatoxanthin","/wiki/Dinoxanthin","/wiki/Flavoxanthin","/wiki/Fucoxanthin","/wiki/Lutein","/wiki/Neoxanthin","/wiki/Rhodoxanthin","/wiki/Rubixanthin","/wiki/Violaxanthin","/wiki/Zeaxanthin","/wiki/Apocarotenoid","/wiki/Abscisic_acid","/wiki/Apocarotenal","/wiki/Bixin","/wiki/Crocetin","/wiki/Food_orange_7","/wiki/Ionone","/wiki/Peridinin","/wiki/Retinal","/wiki/Retinoic_acid","/wiki/Retinol","/wiki/Retinoid","/wiki/Acitretin","/wiki/Alitretinoin","/wiki/Bexarotene","/wiki/Etretinate","/wiki/Fenretinide","/wiki/Isotretinoin","/wiki/Tazarotene","/wiki/Tretinoin","/wiki/File:Formamide-3D-vdW.png","//upload.wikimedia.org/wikipedia/commons/thumb/c/cf/Formamide-3D-vdW.png/30px-Formamide-3D-vdW.png","/wiki/Organic_compound","/wiki/Wikipedia:Stub","//en.wikipedia.org/w/index.php?title=Gamma-Carotene&action=edit","/wiki/Template:Organic-compound-stub","/wiki/Template_talk:Organic-compound-stub","//en.wikipedia.org/w/index.php?title=Template:Organic-compound-stub&action=edit","//en.wikipedia.org/w/index.php?title=Special:CentralAutoLogin/start&type=1x1&from=enwiki","http://en.wikipedia.org/w/index.php?title=Gamma-Carotene&oldid=563118058","/wiki/Help:Categories","/wiki/Category:Carotenoids","/wiki/Category:Organic_compound_stubs","/wiki/Category:Articles_containing_unverified_chemical_infoboxes","/w/index.php?title=Special:UserLogin&returnto=Gamma-Carotene&type=signup","/w/index.php?title=Special:UserLogin&returnto=Gamma-Carotene","/wiki/Gamma-Carotene","/wiki/Talk:Gamma-Carotene","#","/wiki/Gamma-Carotene","/w/index.php?title=Gamma-Carotene&action=edit","/w/index.php?title=Gamma-Carotene&action=history","#","/w/index.php","//bits.wikimedia.org/static-1.22wmf11/skins/vector/images/search-ltr.png?303-4","/wiki/Main_Page","/wiki/Main_Page","/wiki/Portal:Contents","/wiki/Portal:Featured_content","/wiki/Portal:Current_events","/wiki/Special:Random","//donate.wikimedia.org/wiki/Special:FundraiserRedirector?utm_source=donate&utm_medium=sidebar&utm_campaign=C13_en.wikipedia.org&uselang=en","/wiki/Help:Contents","/wiki/Wikipedia:About","/wiki/Wikipedia:Community_portal","/wiki/Special:RecentChanges","//en.wikipedia.org/wiki/Wikipedia:Contact_us","/wiki/Special:WhatLinksHere/Gamma-Carotene","/wiki/Special:RecentChangesLinked/Gamma-Carotene","/wiki/Wikipedia:File_Upload_Wizard","/wiki/Special:SpecialPages","/w/index.php?title=Gamma-Carotene&oldid=563118058","/w/index.php?title=Gamma-Carotene&action=info","//www.wikidata.org/wiki/Q5520255","/w/index.php?title=Special:Cite&page=Gamma-Carotene&id=563118058","/w/index.php?title=Special:Book&bookcmd=book_creator&referer=Gamma-Carotene","/w/index.php?title=Special:Book&bookcmd=render_article&arttitle=Gamma-Carotene&oldid=563118058&writer=rl","/w/index.php?title=Gamma-Carotene&printable=yes","#","//www.wikidata.org/wiki/Q5520255#sitelinks-wikipedia","//en.wikipedia.org/wiki/Wikipedia:Text_of_Creative_Commons_Attribution-ShareAlike_3.0_Unported_License","//creativecommons.org/licenses/by-sa/3.0/","//wikimediafoundation.org/wiki/Terms_of_Use","//wikimediafoundation.org/wiki/Privacy_policy","//www.wikimediafoundation.org/","//wikimediafoundation.org/wiki/Privacy_policy","/wiki/Wikipedia:About","/wiki/Wikipedia:General_disclaimer","//en.wikipedia.org/wiki/Wikipedia:Contact_us","//en.m.wikipedia.org/wiki/Gamma-Carotene","//wikimediafoundation.org/","//bits.wikimedia.org/images/wikimedia-button.png","//www.mediawiki.org/","//bits.wikimedia.org/static-1.22wmf11/skins/common/images/poweredby_mediawiki_88x31.png","//bits.wikimedia.org/en.wikipedia.org/load.php?debug=false&lang=en&modules=site&only=scripts&skin=vector&*"],"instances":[],"pdf":[],"categories":["Carotenoids"],"headings":["References"],"image":["//upload.wikimedia.org/wikipedia/commons/thumb/3/31/Gamma-carotene.svg/250px-Gamma-carotene.svg.png","//upload.wikimedia.org/wikipedia/commons/thumb/c/cf/Formamide-3D-vdW.png/30px-Formamide-3D-vdW.png","//en.wikipedia.org/w/index.php?title=Special:CentralAutoLogin/start&type=1x1&from=enwiki","//bits.wikimedia.org/static-1.22wmf11/skins/vector/images/search-ltr.png?303-4","//bits.wikimedia.org/images/wikimedia-button.png","//bits.wikimedia.org/static-1.22wmf11/skins/common/images/poweredby_mediawiki_88x31.png"],"tags":[],"members":[],"related":["Carotenoid","Isomer","Carotene","Carotenoid","Vitamer","Vitamin_A","Retinol","Enzyme","15-15'-dioxygenase","Retinol"]}