{"cursor":"4794","size":15,"audio":[],"currentlang":"en","article":"{{chembox\n| verifiedrevid = 443834400 Reference = 'Geraniol', [[The Merck Index]],\n| 12th Edition Name = Geraniol ImageFile = Geraniol structure.png\n| ImageSize = 220px ImageName = Geraniol ImageFile2 = Geraniol-3D-balls-B.png\n| ImageSize2 = 240px IUPACName = (trans)-3,7-Dimethyl-2,6-octadien-1-ol Section1\n| = {{Chembox Identifiers ChemSpiderID_Ref = ChemSpiderID = 13849989 InChI = 1/C10H18O/c1-9(2)5-4-6-10(3)7-8-11/h5,7,11H,4,6,8H2,1-3H3/b10-\n| 7+ InChIKey = GLZPCOQZEFWAFX-JXMROGBWBZ StdInChI_Ref = StdInChI = 1S/C10H18O/c1-9(2)5-4-6-10(3)7-8-11/h5,7,11H,4,6,8H2,1-3H3/b10-\n| 7+ StdInChIKey_Ref = StdInChIKey = GLZPCOQZEFWAFX-JXMROGBWSA-N CASNo_Ref =\n| ChEMBL_Ref = ChEMBL = 25719 CASNo = 106-24-1 EINECS = 203-377-1 UNII_Ref =\n| UNII = L837108USY ChEBI_Ref = ChEBI = 17447 SMILES = CC(=CCC/C(=C/CO)/C)C\n}}\n| Section2 = {{Chembox Properties C=10|H=18|O=1 Density = 0.889 g/cm 3\n| MeltingPtC = -15 Melting_notes =  BoilingPtC = 230\n| Boiling_notes =  Solubility = 686 mg/L (20 °C)\n  }} }}\n\n'Geraniol' is a monoterpenoid and an alcohol. It is the primary part of rose\noil, palmarosa oil, and citronella oil (Java type). It also occurs in small\nquantities in geranium, lemon, and many other essential oils. It appears as a\nclear to pale-yellow oil that is insoluble in water, but soluble in most common\norganic solvents. It has a rose-like scent and is commonly used in perfumes. It\nis used in flavors such as peach, raspberry, grapefruit, red apple, plum, lime,\norange, lemon, watermelon, pineapple, and blueberry.\n","linknr":206,"url":"Geraniol","recorded":1374761352,"links":["/w/index.php?title=Geraniol&action=edit","/w/index.php?title=Geraniol&action=edit","//bits.wikimedia.org/favicon/wikipedia.ico","/w/opensearch_desc.php","//en.wikipedia.org/w/api.php?action=rsd","//creativecommons.org/licenses/by-sa/3.0/","/w/index.php?title=Special:RecentChanges&feed=atom","//bits.wikimedia.org/en.wikipedia.org/load.php?debug=false&lang=en&modules=ext.gadget.DRN-wizard%2CReferenceTooltips%2Ccharinsert%2Cteahouse%7Cext.rtlcite%2Cwikihiero%7Cext.uls.nojs%7Cmediawiki.legacy.commonPrint%2Cshared%7Cmw.PopUpMediaTransform%7Cskins.vector&only=styles&skin=vector&*","//bits.wikimedia.org/en.wikipedia.org/load.php?debug=false&lang=en&modules=site&only=styles&skin=vector&*","//bits.wikimedia.org/en.wikipedia.org/load.php?debug=false&lang=en&modules=startup&only=scripts&skin=vector&*","//bits.wikimedia.org/geoiplookup","//meta.wikimedia.org","#mw-navigation","#p-search","#cite_note-1","/wiki/File:Geraniol_structure.png","//upload.wikimedia.org/wikipedia/commons/thumb/3/39/Geraniol_structure.png/220px-Geraniol_structure.png","/wiki/File:Geraniol-3D-balls-B.png","//upload.wikimedia.org/wikipedia/commons/thumb/d/da/Geraniol-3D-balls-B.png/240px-Geraniol-3D-balls-B.png","/wiki/International_Union_of_Pure_and_Applied_Chemistry_nomenclature","/wiki/CAS_registry_number","http://www.commonchemistry.org/ChemicalDetail.aspx?ref=106-24-1","//upload.wikimedia.org/wikipedia/en/thumb/f/fb/Yes_check.svg/7px-Yes_check.svg.png","/wiki/ChemSpider","http://www.chemspider.com/13849989","//upload.wikimedia.org/wikipedia/en/thumb/f/fb/Yes_check.svg/7px-Yes_check.svg.png","/wiki/Unique_Ingredient_Identifier","http://fdasis.nlm.nih.gov/srs/srsdirect.jsp?regno=L837108USY","//upload.wikimedia.org/wikipedia/en/thumb/f/fb/Yes_check.svg/7px-Yes_check.svg.png","/wiki/EC_number_(chemistry)","http://esis.jrc.ec.europa.eu/lib/einecs_IS_reponse.php?genre=ECNO&entree=203-377-1","/wiki/ChEBI","https://www.ebi.ac.uk/chebi/searchId.do?chebiId=17447","//upload.wikimedia.org/wikipedia/en/thumb/f/fb/Yes_check.svg/7px-Yes_check.svg.png","/wiki/ChEMBL","https://www.ebi.ac.uk/chembldb/index.php/compound/inspect/CHEMBL25719","//upload.wikimedia.org/wikipedia/en/thumb/f/fb/Yes_check.svg/7px-Yes_check.svg.png","/wiki/Jmol","http://chemapps.stolaf.edu/jmol/jmol.php?model=CC%28%3DCCC%2FC%28%3DC%2FCO%29%2FC%29C","/wiki/Simplified_molecular-input_line-entry_system","/wiki/International_Chemical_Identifier","//upload.wikimedia.org/wikipedia/en/thumb/f/fb/Yes_check.svg/7px-Yes_check.svg.png","//upload.wikimedia.org/wikipedia/en/thumb/f/fb/Yes_check.svg/7px-Yes_check.svg.png","/wiki/Molecular_formula","/wiki/Molar_mass","/wiki/Density","/wiki/Melting_point","#cite_note-GESTIS-2","/wiki/Boiling_point","#cite_note-GESTIS-2","/wiki/Solubility","/wiki/Water","#cite_note-GESTIS-2","//upload.wikimedia.org/wikipedia/en/thumb/f/fb/Yes_check.svg/14px-Yes_check.svg.png","//en.wikipedia.org/w/index.php?title=Special:ComparePages&rev1=443834400&page2=Geraniol","/wiki/Wikipedia:WikiProject_Chemicals/Chembox_validation","//upload.wikimedia.org/wikipedia/en/thumb/f/fb/Yes_check.svg/10px-Yes_check.svg.png","//upload.wikimedia.org/wikipedia/commons/thumb/a/a2/X_mark.svg/10px-X_mark.svg.png","/wiki/Standard_state","/wiki/Wikipedia:Chemical_infobox#References","/wiki/Terpenoid","/wiki/Alcohol","/wiki/Rose_oil","/wiki/Palmarosa","/wiki/Citronella_oil","/wiki/Pelargonium","/wiki/Lemon","/wiki/Essential_oil","/wiki/Rose","/wiki/Perfume","#Use","#Biochemistry","#Reactions","#Health_and_safety","#Related_compounds","#See_also","#References","#External_links","/w/index.php?title=Geraniol&action=edit&section=1","#cite_note-3","#cite_note-4","/wiki/Honey_bee","#cite_note-5","/wiki/Tobacco","#cite_note-6","/w/index.php?title=Geraniol&action=edit&section=2","/wiki/Functional_group","/wiki/Biosynthesis","/wiki/Terpene","/wiki/Sorbate","/w/index.php?title=Geraniol&action=edit&section=3","/wiki/Acidic","/wiki/Terpineol","/w/index.php?title=Geraniol&action=edit&section=4","#cite_note-7","/w/index.php?title=Geraniol&action=edit&section=5","/wiki/Citral","/wiki/Nerol","/wiki/Rhodinol","/wiki/Geranyl_pyrophosphate","/wiki/Geranylgeranyl_pyrophosphate","/w/index.php?title=Geraniol&action=edit&section=6","/wiki/Perfume_allergy","/w/index.php?title=Geraniol&action=edit&section=7","#cite_ref-1","/wiki/The_Merck_Index","#cite_ref-GESTIS_2-0","#cite_ref-GESTIS_2-1","#cite_ref-GESTIS_2-2","http://gestis-en.itrust.de/nxt/gateway.dll?f=id$t=default.htm$vid=gestiseng:sdbeng$id=491258","/wiki/Institute_for_Occupational_Safety_and_Health","#cite_ref-3","/wiki/Digital_object_identifier","http://dx.doi.org/10.1603%2F0022-2585-41.4.726","/wiki/PubMed_Identifier","//www.ncbi.nlm.nih.gov/pubmed/15311467","#cite_ref-4","http://news.ufl.edu/1999/06/29/no-deet/","#cite_ref-5","http://www.apidologie.org/index.php?option=com_article&access=doi&doi=10.1051/apido:19900403&Itemid=129","/wiki/Digital_object_identifier","http://dx.doi.org/10.1051%2Fapido%3A19900403","#cite_ref-6","http://quitsmoking.about.com/cs/nicotineinhaler/a/cigingredients.htm","#cite_ref-7","http://www2.mst.dk/udgiv/publications/2006/87-7052-278-2/html/kap07_eng.htm","/w/index.php?title=Geraniol&action=edit&section=8","http://www.thegoodscentscompany.com/data/rw1006991.html","//en.wikipedia.org/w/index.php?title=Special:CentralAutoLogin/start&type=1x1&from=enwiki","http://en.wikipedia.org/w/index.php?title=Geraniol&oldid=550286318","/wiki/Help:Categories","/wiki/Category:Perfume_ingredients","/wiki/Category:Chemical_compounds_found_in_wine","/wiki/Category:Chemical_compounds_found_in_Geraniaceae","/wiki/Category:Monoterpenes","/wiki/Category:Alcohols","/wiki/Category:Alkenes","/wiki/Category:Flavors","/w/index.php?title=Special:UserLogin&returnto=Geraniol&type=signup","/w/index.php?title=Special:UserLogin&returnto=Geraniol","/wiki/Geraniol","/wiki/Talk:Geraniol","#","/wiki/Geraniol","/w/index.php?title=Geraniol&action=edit","/w/index.php?title=Geraniol&action=history","#","/w/index.php","//bits.wikimedia.org/static-1.22wmf10/skins/vector/images/search-ltr.png?303-4","/wiki/Main_Page","/wiki/Main_Page","/wiki/Portal:Contents","/wiki/Portal:Featured_content","/wiki/Portal:Current_events","/wiki/Special:Random","//donate.wikimedia.org/wiki/Special:FundraiserRedirector?utm_source=donate&utm_medium=sidebar&utm_campaign=C13_en.wikipedia.org&uselang=en","/wiki/Help:Contents","/wiki/Wikipedia:About","/wiki/Wikipedia:Community_portal","/wiki/Special:RecentChanges","//en.wikipedia.org/wiki/Wikipedia:Contact_us","/wiki/Special:WhatLinksHere/Geraniol","/wiki/Special:RecentChangesLinked/Geraniol","/wiki/Wikipedia:File_Upload_Wizard","/wiki/Special:SpecialPages","/w/index.php?title=Geraniol&oldid=550286318","/w/index.php?title=Geraniol&action=info","//www.wikidata.org/wiki/Q410836","/w/index.php?title=Special:Cite&page=Geraniol&id=550286318","/w/index.php?title=Special:Book&bookcmd=book_creator&referer=Geraniol","/w/index.php?title=Special:Book&bookcmd=render_article&arttitle=Geraniol&oldid=550286318&writer=rl","/w/index.php?title=Geraniol&printable=yes","//ca.wikipedia.org/wiki/Geraniol","//cs.wikipedia.org/wiki/Geraniol","//de.wikipedia.org/wiki/Geraniol","//et.wikipedia.org/wiki/Geraniool","//es.wikipedia.org/wiki/Geraniol","//fa.wikipedia.org/wiki/%DA%AF%D8%B1%D8%A7%D9%86%DB%8C%D9%88%D9%84","//fr.wikipedia.org/wiki/G%C3%A9raniol","//ko.wikipedia.org/wiki/%EA%B2%8C%EB%9D%BC%EB%8B%88%EC%98%AC","//it.wikipedia.org/wiki/Geraniolo","//hu.wikipedia.org/wiki/Geraniol","//nl.wikipedia.org/wiki/Geraniol","//ja.wikipedia.org/wiki/%E3%82%B2%E3%83%A9%E3%83%8B%E3%82%AA%E3%83%BC%E3%83%AB","//pl.wikipedia.org/wiki/Geraniol","//pt.wikipedia.org/wiki/Geraniol","//ru.wikipedia.org/wiki/%D0%93%D0%B5%D1%80%D0%B0%D0%BD%D0%B8%D0%BE%D0%BB","//fi.wikipedia.org/wiki/Geranioli","//sv.wikipedia.org/wiki/Geraniol","//zh.wikipedia.org/wiki/%E9%A6%99%E5%8F%B6%E9%86%87","#","//www.wikidata.org/wiki/Q410836#sitelinks-wikipedia","//en.wikipedia.org/wiki/Wikipedia:Text_of_Creative_Commons_Attribution-ShareAlike_3.0_Unported_License","//creativecommons.org/licenses/by-sa/3.0/","//wikimediafoundation.org/wiki/Terms_of_Use","//wikimediafoundation.org/wiki/Privacy_policy","//www.wikimediafoundation.org/","//wikimediafoundation.org/wiki/Privacy_policy","/wiki/Wikipedia:About","/wiki/Wikipedia:General_disclaimer","//en.wikipedia.org/wiki/Wikipedia:Contact_us","//en.m.wikipedia.org/wiki/Geraniol","//wikimediafoundation.org/","//bits.wikimedia.org/images/wikimedia-button.png","//www.mediawiki.org/","//bits.wikimedia.org/static-1.22wmf10/skins/common/images/poweredby_mediawiki_88x31.png","//bits.wikimedia.org/en.wikipedia.org/load.php?debug=false&lang=en&modules=site&only=scripts&skin=vector&*"],"instances":[],"pdf":[],"categories":["Perfume ingredients","Chemical compounds found in wine","Chemical compounds found in Geraniaceae","Monoterpenes","Alcohols","Alkenes","Flavors"],"headings":["Use","Biochemistry","Reactions","Health and safety","Related compounds","See also","References","External links"],"image":["//upload.wikimedia.org/wikipedia/commons/thumb/3/39/Geraniol_structure.png/220px-Geraniol_structure.png","//upload.wikimedia.org/wikipedia/commons/thumb/d/da/Geraniol-3D-balls-B.png/240px-Geraniol-3D-balls-B.png","//upload.wikimedia.org/wikipedia/en/thumb/f/fb/Yes_check.svg/7px-Yes_check.svg.png","//upload.wikimedia.org/wikipedia/en/thumb/f/fb/Yes_check.svg/7px-Yes_check.svg.png","//upload.wikimedia.org/wikipedia/en/thumb/f/fb/Yes_check.svg/7px-Yes_check.svg.png","//upload.wikimedia.org/wikipedia/en/thumb/f/fb/Yes_check.svg/7px-Yes_check.svg.png","//upload.wikimedia.org/wikipedia/en/thumb/f/fb/Yes_check.svg/7px-Yes_check.svg.png","//upload.wikimedia.org/wikipedia/en/thumb/f/fb/Yes_check.svg/7px-Yes_check.svg.png","//upload.wikimedia.org/wikipedia/en/thumb/f/fb/Yes_check.svg/7px-Yes_check.svg.png","//upload.wikimedia.org/wikipedia/en/thumb/f/fb/Yes_check.svg/14px-Yes_check.svg.png","//upload.wikimedia.org/wikipedia/en/thumb/f/fb/Yes_check.svg/10px-Yes_check.svg.png","//upload.wikimedia.org/wikipedia/commons/thumb/a/a2/X_mark.svg/10px-X_mark.svg.png","//en.wikipedia.org/w/index.php?title=Special:CentralAutoLogin/start&type=1x1&from=enwiki","//bits.wikimedia.org/static-1.22wmf10/skins/vector/images/search-ltr.png?303-4","//bits.wikimedia.org/images/wikimedia-button.png","//bits.wikimedia.org/static-1.22wmf10/skins/common/images/poweredby_mediawiki_88x31.png"],"tags":[],"members":[],"related":["Terpenoid","Alcohol","Rose_oil","Palmarosa","Citronella_oil","Pelargonium","Lemon","Essential_oil","Rose","Perfume","Honey_bee","Tobacco","Functional_group","Biosynthesis","Terpene","Sorbate","Acidic","Terpineol","Citral","Nerol","Rhodinol","Geranyl_pyrophosphate","Geranylgeranyl_pyrophosphate","Perfume_allergy"]}