{"cursor":"3580","size":15,"audio":[],"currentlang":"en","article":"\n{{chembox\n| Watchedfields = changed verifiedrevid = 443855529 ImageFile = Hexadecane.svg\n| ImageFile_Ref = ImageName = Skeletal formula of hexadecane ImageFile1 = Hexadecane-3D-\n| balls.png ImageFile1_Ref = ImageName1 = Ball and stick model of hexadecane\n| ImageFile2 = Hexadecane 3d.gif IUPACName = Hexadecane Section1 =\n| {{chembox Identifiers CASNo = 544-76-3 CASNo_Ref = PubChem = 11006 PubChem_Ref\n| = ChemSpiderID = 10540 ChemSpiderID_Ref = EINECS = 208-878-9 MeSHName = n-\n| hexadecane ChEBI = 45296 ChEBI_Ref = ChEMBL = 134994 ChEMBL_Ref = Beilstein =\n| 1736592 Gmelin = 103739 SMILES = CCCCCCCCCCCCCCCC StdInChI = 1S/C16H34/c1-3-5-7-9-11-13-15-16-14-12-10-8-6-4-2/h3-16H2,1-\n| 2H3 StdInChI_Ref = StdInChIKey = DCAYPVUWAIABOU-UHFFFAOYSA-N StdInChIKey_Ref =\n}}\n| Section2 = {{chembox Properties C = 16 H = 34 Appearance = Colourless liquid\n| Odor = Gasoline-like to odorless Density = 0.77 g/cm 3 MeltingPtC = 18 Melting_notes = \n| BoilingPtC = 287 Boiling_notes =  LogP = 8.859 VaporPressure\n| = â1 kg â1\n| RefractIndex = 1.434\n}}\n| Section3 = {{chembox Thermochemistry DeltaHf = â458.3ââ454.3 kJ\n| mol â1 DeltaHc = â10.7009ââ10.6973 MJ mol â1 Entropy =\n| 586.18 J K â1 mol â1 HeatCapacity = 499.72 J\n| K â1 mol â1\n}}\n| Section4 = {{chembox Hazards GHSPictograms = GHSSignalWord = 'WARNING'\n| HPhrases = EUClass = RPhrases = FlashPt =  Autoignition =\n| \n}}\n| Section5 = {{chembox Related Function = alkanes OtherFunctn =\n}} }}\n\n'Hexadecane' (also called 'cetane') is an alkane hydrocarbon with the chemical\nformula C 16 H34 . Hexadecane consists of a chain of 16\ncarbon atoms, with three hydrogen atoms bonded to the two end carbon atoms, and\ntwo hydrogens bonded to each of the 14 other carbon atoms.\n\nCetane is often used as a shorthand for cetane number, a measure of the\ndetonation of diesel fuel. Cetane ignites very easily under compression; for\nthis reason, it is assigned a cetane number of 100, and serves as a reference\nfor other fuel mixtures.\n\nIt has one of the lowest octane ratings, at [http://chemed.chem.purdu-\ne.edu/genchem/topicreview/bp/1organic/coal.html Petroleum and Coal], Purdue\nUniversity\n","linknr":216,"url":"Hexadecane","recorded":1374763057,"links":["/w/index.php?title=Hexadecane&action=edit","/w/index.php?title=Hexadecane&action=edit","//bits.wikimedia.org/favicon/wikipedia.ico","/w/opensearch_desc.php","//en.wikipedia.org/w/api.php?action=rsd","//creativecommons.org/licenses/by-sa/3.0/","/w/index.php?title=Special:RecentChanges&feed=atom","//bits.wikimedia.org/en.wikipedia.org/load.php?debug=false&lang=en&modules=ext.gadget.DRN-wizard%2CReferenceTooltips%2Ccharinsert%2Cteahouse%7Cext.rtlcite%2Cwikihiero%7Cext.uls.nojs%7Cmediawiki.legacy.commonPrint%2Cshared%7Cmw.PopUpMediaTransform%7Cskins.vector&only=styles&skin=vector&*","//bits.wikimedia.org/en.wikipedia.org/load.php?debug=false&lang=en&modules=site&only=styles&skin=vector&*","//bits.wikimedia.org/en.wikipedia.org/load.php?debug=false&lang=en&modules=startup&only=scripts&skin=vector&*","//bits.wikimedia.org/geoiplookup","//meta.wikimedia.org","#mw-navigation","#p-search","/wiki/Cetane_number","/wiki/File:Hexadecane.svg","//upload.wikimedia.org/wikipedia/commons/thumb/f/f8/Hexadecane.svg/200px-Hexadecane.svg.png","/wiki/File:Hexadecane-3D-balls.png","//upload.wikimedia.org/wikipedia/commons/thumb/4/41/Hexadecane-3D-balls.png/200px-Hexadecane-3D-balls.png","/wiki/File:Hexadecane_3d.gif","//upload.wikimedia.org/wikipedia/commons/thumb/7/79/Hexadecane_3d.gif/200px-Hexadecane_3d.gif","/wiki/International_Union_of_Pure_and_Applied_Chemistry_nomenclature","#cite_note-1","/wiki/CAS_registry_number","http://www.commonchemistry.org/ChemicalDetail.aspx?ref=544-76-3","//upload.wikimedia.org/wikipedia/en/thumb/f/fb/Yes_check.svg/7px-Yes_check.svg.png","/wiki/PubChem","http://pubchem.ncbi.nlm.nih.gov/summary/summary.cgi?cid=11006","/wiki/ChemSpider","http://www.chemspider.com/10540","//upload.wikimedia.org/wikipedia/en/thumb/f/fb/Yes_check.svg/7px-Yes_check.svg.png","/wiki/EC_number_(chemistry)","http://esis.jrc.ec.europa.eu/lib/einecs_IS_reponse.php?genre=ECNO&entree=208-878-9","/wiki/Medical_Subject_Headings","http://www.nlm.nih.gov/cgi/mesh/2007/MB_cgi?mode=&term=n-hexadecane","/wiki/ChEBI","https://www.ebi.ac.uk/chebi/searchId.do?chebiId=45296","//upload.wikimedia.org/wikipedia/en/thumb/f/fb/Yes_check.svg/7px-Yes_check.svg.png","/wiki/ChEMBL","https://www.ebi.ac.uk/chembldb/index.php/compound/inspect/CHEMBL134994","//upload.wikimedia.org/wikipedia/en/thumb/f/fb/Yes_check.svg/7px-Yes_check.svg.png","/wiki/Beilstein_database","/wiki/Gmelin_database","/wiki/Jmol","http://chemapps.stolaf.edu/jmol/jmol.php?model=CCCCCCCCCCCCCCCC","/wiki/Simplified_molecular-input_line-entry_system","/wiki/International_Chemical_Identifier","//upload.wikimedia.org/wikipedia/en/thumb/f/fb/Yes_check.svg/7px-Yes_check.svg.png","//upload.wikimedia.org/wikipedia/en/thumb/f/fb/Yes_check.svg/7px-Yes_check.svg.png","/wiki/Molecular_formula","/wiki/Molar_mass","/wiki/Odor","/wiki/Density","#cite_note-GESTIS-2","/wiki/Melting_point","#cite_note-GESTIS-2","/wiki/Boiling_point","#cite_note-GESTIS-2","/wiki/Partition_coefficient","/wiki/Vapor_pressure","/wiki/Henry%27s_law","/wiki/Refractive_index","/wiki/Standard_enthalpy_change_of_formation","/wiki/Standard_enthalpy_change_of_combustion","/wiki/Standard_molar_entropy","/wiki/Specific_heat_capacity","/wiki/GHS_hazard_pictograms","/wiki/File:GHS-pictogram-exclam.svg","//upload.wikimedia.org/wikipedia/commons/thumb/c/c3/GHS-pictogram-exclam.svg/50px-GHS-pictogram-exclam.svg.png","/wiki/Globally_Harmonized_System_of_Classification_and_Labelling_of_Chemicals","/wiki/GHS_hazard_statement","/wiki/Dangerous_Substances_Directive_(67/548/EEC)","/wiki/File:Hazard_X.svg","//upload.wikimedia.org/wikipedia/commons/thumb/e/ed/Hazard_X.svg/40px-Hazard_X.svg.png","/wiki/List_of_R-phrases","/wiki/R38:_Irritating_to_skin","/wiki/Flash_point","#cite_note-GESTIS-2","/wiki/Autoignition_temperature","#cite_note-GESTIS-2","/wiki/Pentadecane","/wiki/Heptadecane","//upload.wikimedia.org/wikipedia/en/thumb/f/fb/Yes_check.svg/14px-Yes_check.svg.png","//en.wikipedia.org/w/index.php?title=Special:ComparePages&rev1=443855529&page2=Hexadecane","/wiki/Wikipedia:WikiProject_Chemicals/Chembox_validation","//upload.wikimedia.org/wikipedia/en/thumb/f/fb/Yes_check.svg/10px-Yes_check.svg.png","//upload.wikimedia.org/wikipedia/commons/thumb/a/a2/X_mark.svg/10px-X_mark.svg.png","/wiki/Standard_state","/wiki/Wikipedia:Chemical_infobox#References","/wiki/Alkane","/wiki/Hydrocarbon","/wiki/Chemical_formula","/wiki/Cetane_number","/wiki/Diesel_fuel","/wiki/Octane_rating","#cite_note-3","/w/index.php?title=Hexadecane&action=edit&section=1","/wiki/Cetane_number","/wiki/Cetane_index","/wiki/Isocetane","/wiki/Higher_alkanes","/w/index.php?title=Hexadecane&action=edit&section=2","#cite_ref-1","/wiki/PubChem","http://pubchem.ncbi.nlm.nih.gov/summary/summary.cgi?cid=11006","#cite_ref-GESTIS_2-0","#cite_ref-GESTIS_2-1","#cite_ref-GESTIS_2-2","#cite_ref-GESTIS_2-3","#cite_ref-GESTIS_2-4","http://gestis-en.itrust.de/nxt/gateway.dll?f=id$t=default.htm$vid=gestiseng:sdbeng$id=013200","/wiki/Institute_for_Occupational_Safety_and_Health","#cite_ref-3","http://chemed.chem.purdue.edu/genchem/topicreview/bp/1organic/coal.html","/w/index.php?title=Hexadecane&action=edit&section=3","http://ddbonline.ddbst.de/AntoineCalculation/AntoineCalculationCGI.exe?component=Hexadecane","http://ddbonline.ddbst.de/DIPPR105DensityCalculation/DIPPR105CalculationCGI.exe?component=Hexadecane","http://www.bepress.com/ijcre/vol9/S3/","/wiki/Template:Alkanes","/wiki/Template_talk:Alkanes","//en.wikipedia.org/w/index.php?title=Template:Alkanes&action=edit","/wiki/Alkane","/wiki/Methane","/wiki/Ethane","/wiki/Propane","/wiki/Butane","/wiki/Pentane","/wiki/Hexane","/wiki/Heptane","/wiki/Octane","/wiki/Nonane","/wiki/Decane","/wiki/Undecane","/wiki/Dodecane","/wiki/Tridecane","/wiki/Tetradecane","/wiki/Pentadecane","/wiki/Heptadecane","/wiki/Octadecane","/wiki/Nonadecane","/wiki/Icosane","/wiki/Higher_alkanes","/wiki/List_of_straight-chain_alkanes","//en.wikipedia.org/w/index.php?title=Special:CentralAutoLogin/start&type=1x1&from=enwiki","http://en.wikipedia.org/w/index.php?title=Hexadecane&oldid=552131781","/wiki/Help:Categories","/wiki/Category:Alkanes","/wiki/Category:Chemboxes_which_contain_changes_to_watched_fields","/w/index.php?title=Special:UserLogin&returnto=Hexadecane&type=signup","/w/index.php?title=Special:UserLogin&returnto=Hexadecane","/wiki/Hexadecane","/wiki/Talk:Hexadecane","#","/wiki/Hexadecane","/w/index.php?title=Hexadecane&action=edit","/w/index.php?title=Hexadecane&action=history","#","/w/index.php","//bits.wikimedia.org/static-1.22wmf10/skins/vector/images/search-ltr.png?303-4","/wiki/Main_Page","/wiki/Main_Page","/wiki/Portal:Contents","/wiki/Portal:Featured_content","/wiki/Portal:Current_events","/wiki/Special:Random","//donate.wikimedia.org/wiki/Special:FundraiserRedirector?utm_source=donate&utm_medium=sidebar&utm_campaign=C13_en.wikipedia.org&uselang=en","/wiki/Help:Contents","/wiki/Wikipedia:About","/wiki/Wikipedia:Community_portal","/wiki/Special:RecentChanges","//en.wikipedia.org/wiki/Wikipedia:Contact_us","/wiki/Special:WhatLinksHere/Hexadecane","/wiki/Special:RecentChangesLinked/Hexadecane","/wiki/Wikipedia:File_Upload_Wizard","/wiki/Special:SpecialPages","/w/index.php?title=Hexadecane&oldid=552131781","/w/index.php?title=Hexadecane&action=info","//www.wikidata.org/wiki/Q150843","/w/index.php?title=Special:Cite&page=Hexadecane&id=552131781","/w/index.php?title=Special:Book&bookcmd=book_creator&referer=Hexadecane","/w/index.php?title=Special:Book&bookcmd=render_article&arttitle=Hexadecane&oldid=552131781&writer=rl","/w/index.php?title=Hexadecane&printable=yes","//ar.wikipedia.org/wiki/%D9%87%D9%8A%D9%83%D8%B3%D8%A7%D8%AF%D9%8A%D9%83%D8%A7%D9%86","//az.wikipedia.org/wiki/Heksadekan","//cs.wikipedia.org/wiki/N-hexadekan","//es.wikipedia.org/wiki/Hexadecano","//fa.wikipedia.org/wiki/%D9%87%DA%AF%D8%B2%D8%A7%D8%AF%DA%A9%D8%A7%D9%86","//fr.wikipedia.org/wiki/C%C3%A9tane","//ko.wikipedia.org/wiki/%EC%84%B8%ED%85%8C%EC%9D%B8","//id.wikipedia.org/wiki/Heksadekana","//hu.wikipedia.org/wiki/Hexadek%C3%A1n","//nl.wikipedia.org/wiki/Hexadecaan","//ja.wikipedia.org/wiki/%E3%83%98%E3%82%AD%E3%82%B5%E3%83%87%E3%82%AB%E3%83%B3","//pl.wikipedia.org/wiki/Heksadekan","//pt.wikipedia.org/wiki/Cetano","//ru.wikipedia.org/wiki/%D0%93%D0%B5%D0%BA%D1%81%D0%B0%D0%B4%D0%B5%D0%BA%D0%B0%D0%BD","//fi.wikipedia.org/wiki/Heksadekaani","//sv.wikipedia.org/wiki/Hexadekan","//uk.wikipedia.org/wiki/%D0%93%D0%B5%D0%BA%D1%81%D0%B0%D0%B4%D0%B5%D0%BA%D0%B0%D0%BD","//zh.wikipedia.org/wiki/%E5%8D%81%E5%85%AD%E7%83%B7","#","//www.wikidata.org/wiki/Q150843#sitelinks-wikipedia","//en.wikipedia.org/wiki/Wikipedia:Text_of_Creative_Commons_Attribution-ShareAlike_3.0_Unported_License","//creativecommons.org/licenses/by-sa/3.0/","//wikimediafoundation.org/wiki/Terms_of_Use","//wikimediafoundation.org/wiki/Privacy_policy","//www.wikimediafoundation.org/","//wikimediafoundation.org/wiki/Privacy_policy","/wiki/Wikipedia:About","/wiki/Wikipedia:General_disclaimer","//en.wikipedia.org/wiki/Wikipedia:Contact_us","//en.m.wikipedia.org/wiki/Hexadecane","//wikimediafoundation.org/","//bits.wikimedia.org/images/wikimedia-button.png","//www.mediawiki.org/","//bits.wikimedia.org/static-1.22wmf10/skins/common/images/poweredby_mediawiki_88x31.png","//bits.wikimedia.org/en.wikipedia.org/load.php?debug=false&lang=en&modules=site&only=scripts&skin=vector&*"],"instances":[],"pdf":[],"categories":["Alkanes"],"headings":["See also","References","External links"],"image":["//upload.wikimedia.org/wikipedia/commons/thumb/f/f8/Hexadecane.svg/200px-Hexadecane.svg.png","//upload.wikimedia.org/wikipedia/commons/thumb/4/41/Hexadecane-3D-balls.png/200px-Hexadecane-3D-balls.png","//upload.wikimedia.org/wikipedia/commons/thumb/7/79/Hexadecane_3d.gif/200px-Hexadecane_3d.gif","//upload.wikimedia.org/wikipedia/en/thumb/f/fb/Yes_check.svg/7px-Yes_check.svg.png","//upload.wikimedia.org/wikipedia/en/thumb/f/fb/Yes_check.svg/7px-Yes_check.svg.png","//upload.wikimedia.org/wikipedia/en/thumb/f/fb/Yes_check.svg/7px-Yes_check.svg.png","//upload.wikimedia.org/wikipedia/en/thumb/f/fb/Yes_check.svg/7px-Yes_check.svg.png","//upload.wikimedia.org/wikipedia/en/thumb/f/fb/Yes_check.svg/7px-Yes_check.svg.png","//upload.wikimedia.org/wikipedia/en/thumb/f/fb/Yes_check.svg/7px-Yes_check.svg.png","//upload.wikimedia.org/wikipedia/commons/thumb/c/c3/GHS-pictogram-exclam.svg/50px-GHS-pictogram-exclam.svg.png","//upload.wikimedia.org/wikipedia/commons/thumb/e/ed/Hazard_X.svg/40px-Hazard_X.svg.png","//upload.wikimedia.org/wikipedia/en/thumb/f/fb/Yes_check.svg/14px-Yes_check.svg.png","//upload.wikimedia.org/wikipedia/en/thumb/f/fb/Yes_check.svg/10px-Yes_check.svg.png","//upload.wikimedia.org/wikipedia/commons/thumb/a/a2/X_mark.svg/10px-X_mark.svg.png","//en.wikipedia.org/w/index.php?title=Special:CentralAutoLogin/start&type=1x1&from=enwiki","//bits.wikimedia.org/static-1.22wmf10/skins/vector/images/search-ltr.png?303-4","//bits.wikimedia.org/images/wikimedia-button.png","//bits.wikimedia.org/static-1.22wmf10/skins/common/images/poweredby_mediawiki_88x31.png"],"tags":[],"members":[],"related":["Alkane","Hydrocarbon","Chemical_formula","Cetane_number","Diesel_fuel","Octane_rating","Cetane_number","Cetane_index","Isocetane","Higher_alkanes"]}