{"cursor":"4255","size":15,"audio":[],"currentlang":"en","article":"{{chembox\n| verifiedrevid = 422526251 ImageFileL1 = Isobutylene-2D-skeletal.png\n| ImageSizeL1 = 110px ImageNameL1 = Skeletal formula ImageFileR1 = Isobutylene-3D-\n| vdW.png ImageSizeR1 = 120px ImageNameR1 = Space-filling model ImageFile2 = Isobutylene-3D-\n| balls.png ImageSize2 = 180px ImageName2 = Ball-and-stick model IUPACName = 2-\n| Methylpropene OtherNames = Isobutene γ-Butylene 2-Methylpropylene Methylpropene 2-\n| Methylprop-1-ene Section1 = {{Chembox Identifiers StdInChI_Ref = StdInChI =\n| 1S/C4H8/c1-4(2)3/h1H2,2-3H3 StdInChIKey_Ref = StdInChIKey = VQTUBCCKSQIDNK-UHFFFAOYSA-\n| N CASNo = 115-11-7 CASNo_Ref = UNNumber = 1055 In [[Liquefied petroleum\n| gas]]:1075 EINECS = 204-066-3 ChemSpiderID_Ref = ChemSpiderID = 7957 PubChem =\n| 8255 SMILES = CC(=C)C UNII_Ref = UNII = QA2LMR467H InChI = 1/C4H8/c1-4(2)3/h1H2,2-\n| 3H3 RTECS = UD0890000\n  }}\n| Section2 = {{Chembox Properties Reference = . C=4|H=8 MolarMass =\n| 56.106 g/mol Appearance = Colorless gas Density = 0.5879 g/cm 3,\n| liquid MeltingPt = −140.3 ºC BoilingPtC = -6.9 Boiling_notes = Solubility =\n| Insoluble SolubleOther = Solvent =\n  }}\n| Section7 = {{Chembox Hazards Reference =  EUIndex = 601-012-00-\n| 4 EUClass = Extremely flammable ('F+') RPhrases = SPhrases = , , ,\n| GHSPictograms = GHSSignalWord = DANGER HPhrases = PPhrases = NFPA-H = 1 NFPA-F\n| = 4 NFPA-R = 0 NFPA-O = FlashPt = flammable gas Autoignition = 465 °C (869 ºF)\n| ExploLimits = 1.8–9.6%\n  }}\n| Section8 = {{Chembox Related OtherFunctn = 1-Butene ''cis''-2-Butene ''trans''-2-\n| Butene Function = butenes OtherCpds = Isobutane\n  }} }}\n\n'Isobutylene' (or 2-methylpropene) is a hydrocarbon of industrial significance.\nIt is a four-carbon branched alkene (olefin), one of the four isomers of\nbutylene. At standard temperature and pressure it is a colorless flammable gas.\n","linknr":209,"url":"Isobutylene","recorded":1364130579,"links":["/w/index.php?title=Isobutylene&action=edit","/w/index.php?title=Isobutylene&action=edit","//en.wikipedia.org/apple-touch-icon.png","//bits.wikimedia.org/favicon/wikipedia.ico","/w/opensearch_desc.php","//en.wikipedia.org/w/api.php?action=rsd","//creativecommons.org/licenses/by-sa/3.0/","/w/index.php?title=Special:RecentChanges&feed=atom","//bits.wikimedia.org/en.wikipedia.org/load.php?debug=false&lang=en&modules=ext.gadget.DRN-wizard%2CReferenceTooltips%2Ccharinsert%2Cteahouse%7Cext.wikihiero%7Cmediawiki.legacy.commonPrint%2Cshared%7Cmw.PopUpMediaTransform%7Cskins.vector&only=styles&skin=vector&*","//bits.wikimedia.org/en.wikipedia.org/load.php?debug=false&lang=en&modules=site&only=styles&skin=vector&*","//bits.wikimedia.org/en.wikipedia.org/load.php?debug=false&lang=en&modules=startup&only=scripts&skin=vector&*","//bits.wikimedia.org/geoiplookup","//meta.wikimedia.org","#mw-head","#p-search","/wiki/File:Isobutylene-2D-skeletal.png","//upload.wikimedia.org/wikipedia/commons/thumb/9/9c/Isobutylene-2D-skeletal.png/110px-Isobutylene-2D-skeletal.png","/wiki/File:Isobutylene-3D-vdW.png","//upload.wikimedia.org/wikipedia/commons/thumb/c/cb/Isobutylene-3D-vdW.png/120px-Isobutylene-3D-vdW.png","/wiki/File:Isobutylene-3D-balls.png","//upload.wikimedia.org/wikipedia/commons/thumb/7/75/Isobutylene-3D-balls.png/180px-Isobutylene-3D-balls.png","/wiki/International_Union_of_Pure_and_Applied_Chemistry_nomenclature","/wiki/CAS_registry_number","http://www.commonchemistry.org/ChemicalDetail.aspx?ref=115-11-7","//upload.wikimedia.org/wikipedia/en/thumb/f/fb/Yes_check.svg/7px-Yes_check.svg.png","/wiki/PubChem","http://pubchem.ncbi.nlm.nih.gov/summary/summary.cgi?cid=8255","/wiki/ChemSpider","http://www.chemspider.com/7957","//upload.wikimedia.org/wikipedia/en/thumb/f/fb/Yes_check.svg/7px-Yes_check.svg.png","/wiki/Unique_Ingredient_Identifier","http://fdasis.nlm.nih.gov/srs/srsdirect.jsp?regno=QA2LMR467H","//upload.wikimedia.org/wikipedia/en/thumb/f/fb/Yes_check.svg/7px-Yes_check.svg.png","/wiki/EC_number_(chemistry)","http://esis.jrc.ec.europa.eu/lib/einecs_IS_reponse.php?genre=ECNO&entree=204-066-3","/wiki/UN_number","/wiki/List_of_UN_Numbers_1001_to_1100","/wiki/Liquefied_petroleum_gas","/wiki/List_of_UN_Numbers_1001_to_1100","/wiki/RTECS","/wiki/Jmol","http://chemapps.stolaf.edu/jmol/jmol.php?model=CC%28%3DC%29C","/wiki/Simplified_molecular-input_line-entry_system","/wiki/International_Chemical_Identifier","//upload.wikimedia.org/wikipedia/en/thumb/f/fb/Yes_check.svg/7px-Yes_check.svg.png","//upload.wikimedia.org/wikipedia/en/thumb/f/fb/Yes_check.svg/7px-Yes_check.svg.png","#cite_note-1","/wiki/Molecular_formula","/wiki/Molar_mass","/wiki/Density","/wiki/Melting_point","/wiki/Boiling_point","/wiki/Solubility","/wiki/Water","#cite_note-ICSC-2","/wiki/GHS_hazard_pictograms","/wiki/File:GHS-pictogram-flamme.svg","//upload.wikimedia.org/wikipedia/commons/thumb/6/6d/GHS-pictogram-flamme.svg/50px-GHS-pictogram-flamme.svg.png","/wiki/File:GHS-pictogram-exclam.svg","//upload.wikimedia.org/wikipedia/commons/thumb/c/c3/GHS-pictogram-exclam.svg/50px-GHS-pictogram-exclam.svg.png","/wiki/Globally_Harmonized_System_of_Classification_and_Labelling_of_Chemicals","/wiki/GHS_hazard_statement","/wiki/GHS_precautionary_statements","/wiki/Dangerous_Substances_Directive_(67/548/EEC)","/wiki/List_of_R-phrases","/wiki/R12:_Extremely_flammable","/wiki/List_of_S-phrases","/wiki/(S2):_Keep_out_of_the_reach_of_children","/wiki/S9:_Keep_container_in_a_well-ventilated_place","/wiki/S16:_Keep_away_from_sources_of_ignition_-_No_smoking","/wiki/S33:_Take_precautionary_measures_against_static_discharges","/wiki/NFPA_704","/wiki/File:NFPA_704.svg","//upload.wikimedia.org/wikipedia/commons/thumb/6/6f/NFPA_704.svg/75px-NFPA_704.svg.png","/wiki/Flash_point","/wiki/Autoignition_temperature","/wiki/Explosive_limit","/wiki/Butene","/wiki/1-Butene","/wiki/Cis-2-Butene","/wiki/Trans-2-Butene","/wiki/Isobutane","//upload.wikimedia.org/wikipedia/en/thumb/f/fb/Yes_check.svg/14px-Yes_check.svg.png","//en.wikipedia.org/w/index.php?title=Special:ComparePages&rev1=422526251&page2=Isobutylene","/wiki/Wikipedia:WikiProject_Chemicals/Chembox_validation","//upload.wikimedia.org/wikipedia/en/thumb/f/fb/Yes_check.svg/10px-Yes_check.svg.png","//upload.wikimedia.org/wikipedia/commons/thumb/a/a2/X_mark.svg/10px-X_mark.svg.png","/wiki/Standard_state","/wiki/Wikipedia:Chemical_infobox#References","/wiki/Hydrocarbon","/wiki/Alkene","/wiki/Isomers_of_butylene","#Uses","#Manufacture","#Safety","#See_also","#References","#External_links","/w/index.php?title=Isobutylene&action=edit&section=1","/wiki/Methanol","/wiki/Ethanol","/wiki/Methyl_tert-butyl_ether","/wiki/Ethyl_tert-butyl_ether","/wiki/Alkylation","/wiki/Isooctane","/wiki/Methacrolein","/wiki/Polymerization","/wiki/Butyl_rubber","/wiki/Butylated_hydroxytoluene","/wiki/Butylated_hydroxyanisole","/wiki/Friedel-Crafts_alkylation","/wiki/Phenol","/w/index.php?title=Isobutylene&action=edit&section=2","/wiki/Sulfuric_acid","/wiki/Catalysis","/wiki/Dehydrogenation","/wiki/Isobutane","#cite_note-3","/w/index.php?title=Isobutylene&action=edit&section=3","#cite_note-ICSC-2","/w/index.php?title=Isobutylene&action=edit&section=4","/wiki/Butyl_rubber","/wiki/Polythene","/wiki/Polybutene","/w/index.php?title=Isobutylene&action=edit&section=5","#cite_ref-1","/wiki/Merck_Index","/wiki/International_Standard_Book_Number","/wiki/Special:BookSources/091191028X","#cite_ref-ICSC_2-0","#cite_ref-ICSC_2-1","http://www.inchem.org/documents/icsc/icsc/eics1027.htm","http://www.inchem.org/documents/icsc/icsc/eics1027.htm","#cite_ref-3","/wiki/George_Andrew_Olah","/wiki/International_Standard_Book_Number","/wiki/Special:BookSources/978-0-471-41782-8","/w/index.php?title=Isobutylene&action=edit&section=6","http://www.inchem.org/documents/icsc/icsc/eics1027.htm","http://www.inchem.org/documents/sids/sids/115117.pdf","/wiki/Organisation_for_Economic_Co-operation_and_Development","http://en.wikipedia.org/w/index.php?title=Isobutylene&oldid=540248857","/wiki/Help:Categories","/wiki/Category:Alkenes","/w/index.php?title=Special:UserLogin&returnto=Isobutylene&type=signup","/w/index.php?title=Special:UserLogin&returnto=Isobutylene","/wiki/Isobutylene","/wiki/Talk:Isobutylene","#","/wiki/Isobutylene","/w/index.php?title=Isobutylene&action=edit","/w/index.php?title=Isobutylene&action=history","#","/w/index.php","//bits.wikimedia.org/static-1.21wmf11/skins/vector/images/search-ltr.png?303-4","/wiki/Main_Page","/wiki/Main_Page","/wiki/Portal:Contents","/wiki/Portal:Featured_content","/wiki/Portal:Current_events","/wiki/Special:Random","//donate.wikimedia.org/wiki/Special:FundraiserRedirector?utm_source=donate&utm_medium=sidebar&utm_campaign=C13_en.wikipedia.org&uselang=en","/wiki/Help:Contents","/wiki/Wikipedia:About","/wiki/Wikipedia:Community_portal","/wiki/Special:RecentChanges","/wiki/Wikipedia:Contact_us","/wiki/Special:WhatLinksHere/Isobutylene","/wiki/Special:RecentChangesLinked/Isobutylene","/wiki/Wikipedia:File_Upload_Wizard","/wiki/Special:SpecialPages","/w/index.php?title=Isobutylene&oldid=540248857","/w/index.php?title=Isobutylene&action=info","/w/index.php?title=Special:Cite&page=Isobutylene&id=540248857","/w/index.php?title=Special:Book&bookcmd=book_creator&referer=Isobutylene","/w/index.php?title=Special:Book&bookcmd=render_article&arttitle=Isobutylene&oldid=540248857&writer=rl","/w/index.php?title=Isobutylene&printable=yes","//az.wikipedia.org/wiki/%C4%B0zobutilen","//ca.wikipedia.org/wiki/Isobutil%C3%A8","//et.wikipedia.org/wiki/Isobuteen","//el.wikipedia.org/wiki/%CE%9C%CE%B5%CE%B8%CF%85%CE%BB%CE%BF%CF%80%CF%81%CE%BF%CF%80%CE%AD%CE%BD%CE%B9%CE%BF","//es.wikipedia.org/wiki/Isobutileno","//fa.wikipedia.org/wiki/%D8%A7%DB%8C%D8%B2%D9%88%D8%A8%D9%88%D8%AA%DB%8C%D9%84%D9%86","//fr.wikipedia.org/wiki/M%C3%A9thylprop%C3%A8ne","//it.wikipedia.org/wiki/Isobutene","//nl.wikipedia.org/wiki/Isobuteen","//ja.wikipedia.org/wiki/%E3%82%A4%E3%82%BD%E3%83%96%E3%83%86%E3%83%B3","//pl.wikipedia.org/wiki/Izobutylen","//pt.wikipedia.org/wiki/Isobutileno","//ru.wikipedia.org/wiki/%D0%98%D0%B7%D0%BE%D0%B1%D1%83%D1%82%D0%B8%D0%BB%D0%B5%D0%BD","//fi.wikipedia.org/wiki/2-metyylipropeeni","//uk.wikipedia.org/wiki/%D0%86%D0%B7%D0%BE%D0%B1%D1%83%D1%82%D0%B8%D0%BB%D0%B5%D0%BD","//zh.wikipedia.org/wiki/%E5%BC%82%E4%B8%81%E7%83%AF","//www.wikidata.org/wiki/Special:ItemByTitle/enwiki/Isobutylene","//en.wikipedia.org/wiki/Wikipedia:Text_of_Creative_Commons_Attribution-ShareAlike_3.0_Unported_License","//creativecommons.org/licenses/by-sa/3.0/","//wikimediafoundation.org/wiki/Terms_of_Use","//www.wikimediafoundation.org/","//en.wikipedia.org/wiki/Wikipedia:Contact_us","//wikimediafoundation.org/wiki/Privacy_policy","/wiki/Wikipedia:About","/wiki/Wikipedia:General_disclaimer","http://en.m.wikipedia.org/wiki/Isobutylene","//wikimediafoundation.org/","//bits.wikimedia.org/images/wikimedia-button.png","//www.mediawiki.org/","//bits.wikimedia.org/static-1.21wmf11/skins/common/images/poweredby_mediawiki_88x31.png","//bits.wikimedia.org/en.wikipedia.org/load.php?debug=false&lang=en&modules=skins.vector&only=scripts&skin=vector&*","/w/index.php?title=MediaWiki:Gadget-ReferenceTooltips.js&action=raw&ctype=text/javascript&508635914","//bits.wikimedia.org/en.wikipedia.org/load.php?debug=false&lang=en&modules=site&only=scripts&skin=vector&*"],"instances":[],"pdf":["http://www.inchem.org/documents/sids/sids/115117.pdf"],"categories":["Alkenes"],"headings":["Uses","Manufacture","Safety","See also","References","External links"],"image":["//upload.wikimedia.org/wikipedia/commons/thumb/9/9c/Isobutylene-2D-skeletal.png/110px-Isobutylene-2D-skeletal.png","//upload.wikimedia.org/wikipedia/commons/thumb/c/cb/Isobutylene-3D-vdW.png/120px-Isobutylene-3D-vdW.png","//upload.wikimedia.org/wikipedia/commons/thumb/7/75/Isobutylene-3D-balls.png/180px-Isobutylene-3D-balls.png","//upload.wikimedia.org/wikipedia/en/thumb/f/fb/Yes_check.svg/7px-Yes_check.svg.png","//upload.wikimedia.org/wikipedia/en/thumb/f/fb/Yes_check.svg/7px-Yes_check.svg.png","//upload.wikimedia.org/wikipedia/en/thumb/f/fb/Yes_check.svg/7px-Yes_check.svg.png","//upload.wikimedia.org/wikipedia/en/thumb/f/fb/Yes_check.svg/7px-Yes_check.svg.png","//upload.wikimedia.org/wikipedia/en/thumb/f/fb/Yes_check.svg/7px-Yes_check.svg.png","//upload.wikimedia.org/wikipedia/commons/thumb/6/6d/GHS-pictogram-flamme.svg/50px-GHS-pictogram-flamme.svg.png","//upload.wikimedia.org/wikipedia/commons/thumb/c/c3/GHS-pictogram-exclam.svg/50px-GHS-pictogram-exclam.svg.png","//upload.wikimedia.org/wikipedia/commons/thumb/6/6f/NFPA_704.svg/75px-NFPA_704.svg.png","//upload.wikimedia.org/wikipedia/en/thumb/f/fb/Yes_check.svg/14px-Yes_check.svg.png","//upload.wikimedia.org/wikipedia/en/thumb/f/fb/Yes_check.svg/10px-Yes_check.svg.png","//upload.wikimedia.org/wikipedia/commons/thumb/a/a2/X_mark.svg/10px-X_mark.svg.png","//bits.wikimedia.org/static-1.21wmf11/skins/vector/images/search-ltr.png?303-4","//bits.wikimedia.org/images/wikimedia-button.png","//bits.wikimedia.org/static-1.21wmf11/skins/common/images/poweredby_mediawiki_88x31.png"],"tags":[],"members":[],"related":["List_of_UN_Numbers_1001_to_1100","List_of_UN_Numbers_1001_to_1100","1-Butene","Cis-2-Butene","Trans-2-Butene","Butene","Isobutane","Hydrocarbon","Alkene","Isomers_of_butylene","Methanol","Ethanol","Methyl_tert-butyl_ether","Ethyl_tert-butyl_ether","Alkylation","Isooctane","Methacrolein","Polymerization","Butyl_rubber","Butylated_hydroxytoluene","Butylated_hydroxyanisole","Friedel-Crafts_alkylation","Phenol","Sulfuric_acid","Catalysis","Dehydrogenation","Isobutane","Butyl_rubber","Polythene","Polybutene"]}