{"cursor":"2170","size":15,"audio":[],"currentlang":"en","article":"{{chembox\n| verifiedrevid = 363253909 Name = Isopropyl myristate Reference =\n| [http://www.physchem.ox.ac.uk/MSDS/IS/isopropyl_myristate.html MSDS for\n| isopropyl myristate] ImageFile = Isopropyl myristate.png ImageSize =\n| 200px ImageName = Isopropyl myristate IUPACName = Propan-2-yl tetradecanoate\n| OtherNames = Tetradecanoic acid, 1-methylethyl ester Myristic acid\n| isopropyl ester Section1 = {{Chembox Identifiers SMILES =\n| CCCCCCCCCCCCCC(=O)OC(C)C CASNo_Ref = CASNo = 110-27-0 EINECS = 203-751-4 RTECS\n| = XB8600000\n  }}\n| Section2 = {{Chembox Properties Formula =\n| C 17 H34 O2 MolarMass = 270.451 g/mol Appearance\n| = Density = 0.85 g/cm³, liquid Solubility = MeltingPt = BoilingPt = 167 °C (9\n| mmHg) pKa = pKb = Viscosity =\n  }}\n| Section3 = {{Chembox Structure MolShape = Coordination = CrystalStruct =\n| Dipole =\n  }}\n| Section7 = {{Chembox Hazards ExternalMSDS = MainHazards = FlashPt = RPhrases =\n| SPhrases =\n  }}\n| Section8 = {{Chembox Related OtherAnions = OtherCations = OtherCpds =\n  }} }}\n\n'Isopropyl myristate' is the ester of isopropanol and myristic acid.\n","linknr":124,"url":"Isopropyl_myristate","recorded":1363185640,"links":["/w/index.php?title=Isopropyl_myristate&action=edit","/w/index.php?title=Isopropyl_myristate&action=edit","//en.wikipedia.org/apple-touch-icon.png","//bits.wikimedia.org/favicon/wikipedia.ico","/w/opensearch_desc.php","//en.wikipedia.org/w/api.php?action=rsd","//creativecommons.org/licenses/by-sa/3.0/","/w/index.php?title=Special:RecentChanges&feed=atom","//bits.wikimedia.org/en.wikipedia.org/load.php?debug=false&lang=en&modules=ext.gadget.DRN-wizard%2CReferenceTooltips%2Ccharinsert%2Cteahouse%7Cext.wikihiero%7Cmediawiki.legacy.commonPrint%2Cshared%7Cmw.PopUpMediaTransform%7Cskins.vector&only=styles&skin=vector&*","//bits.wikimedia.org/en.wikipedia.org/load.php?debug=false&lang=en&modules=site&only=styles&skin=vector&*","//bits.wikimedia.org/en.wikipedia.org/load.php?debug=false&lang=en&modules=startup&only=scripts&skin=vector&*","//bits.wikimedia.org/geoiplookup","//meta.wikimedia.org","#mw-head","#p-search","#cite_note-1","/wiki/File:Isopropyl_myristate.png","//upload.wikimedia.org/wikipedia/commons/thumb/6/6a/Isopropyl_myristate.png/200px-Isopropyl_myristate.png","/wiki/International_Union_of_Pure_and_Applied_Chemistry_nomenclature","/wiki/CAS_registry_number","http://www.commonchemistry.org/ChemicalDetail.aspx?ref=110-27-0","//upload.wikimedia.org/wikipedia/en/thumb/f/fb/Yes_check.svg/7px-Yes_check.svg.png","/wiki/EC_number_(chemistry)","http://esis.jrc.ec.europa.eu/lib/einecs_IS_reponse.php?genre=ECNO&entree=203-751-4","/wiki/RTECS","/wiki/Jmol","http://chemapps.stolaf.edu/jmol/jmol.php?model=CCCCCCCCCCCCCC%28%3DO%29OC%28C%29C","/wiki/Simplified_molecular-input_line-entry_system","/wiki/Chemical_formula","/wiki/Molar_mass","/wiki/Density","/wiki/Boiling_point","/wiki/List_of_R-phrases","/wiki/R38:_Irritating_to_skin","/wiki/List_of_S-phrases","/wiki/S24/25:_Avoid_contact_with_skin_and_eyes","//upload.wikimedia.org/wikipedia/en/thumb/f/fb/Yes_check.svg/14px-Yes_check.svg.png","//en.wikipedia.org/w/index.php?title=Special:ComparePages&rev1=363253909&page2=Isopropyl+myristate","/wiki/Wikipedia:WikiProject_Chemicals/Chembox_validation","//upload.wikimedia.org/wikipedia/en/thumb/f/fb/Yes_check.svg/10px-Yes_check.svg.png","//upload.wikimedia.org/wikipedia/commons/thumb/a/a2/X_mark.svg/10px-X_mark.svg.png","/wiki/Standard_state","/wiki/Wikipedia:Chemical_infobox#References","/wiki/Ester","/wiki/Isopropanol","/wiki/Myristic_acid","/w/index.php?title=Isopropyl_myristate&action=edit&section=1","/wiki/Pesticide","/wiki/Pediculosis","/wiki/Wax","/wiki/Exoskeleton","/wiki/Dehydration","#cite_note-2","/wiki/Fixative_(perfumery)","/wiki/Non-aqueous","/wiki/Dentyl_pH","/wiki/Prosthetic_make-up","/w/index.php?title=Isopropyl_myristate&action=edit&section=2","#cite_ref-1","http://www.physchem.ox.ac.uk/MSDS/IS/isopropyl_myristate.html","#cite_ref-2","http://www.lice.ca/treatment/anti_lice_insecticide.html","/w/index.php?title=Isopropyl_myristate&action=edit&section=3","http://householdproducts.nlm.nih.gov/cgi-bin/household/brands?tbl=chem&id=94","/wiki/United_States_National_Library_of_Medicine","http://en.wikipedia.org/w/index.php?title=Isopropyl_myristate&oldid=542837114","/wiki/Help:Categories","/wiki/Category:Carboxylate_esters","/wiki/Category:Lice","/wiki/Category:Chemical_pages_needing_a_ChemSpiderID","/w/index.php?title=Special:UserLogin&returnto=Isopropyl+myristate&type=signup","/w/index.php?title=Special:UserLogin&returnto=Isopropyl+myristate","/wiki/Isopropyl_myristate","/wiki/Talk:Isopropyl_myristate","#","/wiki/Isopropyl_myristate","/w/index.php?title=Isopropyl_myristate&action=edit","/w/index.php?title=Isopropyl_myristate&action=history","#","/w/index.php","//bits.wikimedia.org/static-1.21wmf10/skins/vector/images/search-ltr.png?303-4","/wiki/Main_Page","/wiki/Main_Page","/wiki/Portal:Contents","/wiki/Portal:Featured_content","/wiki/Portal:Current_events","/wiki/Special:Random","//donate.wikimedia.org/wiki/Special:FundraiserRedirector?utm_source=donate&utm_medium=sidebar&utm_campaign=C13_en.wikipedia.org&uselang=en","/wiki/Help:Contents","/wiki/Wikipedia:About","/wiki/Wikipedia:Community_portal","/wiki/Special:RecentChanges","/wiki/Wikipedia:Contact_us","/wiki/Special:WhatLinksHere/Isopropyl_myristate","/wiki/Special:RecentChangesLinked/Isopropyl_myristate","/wiki/Wikipedia:File_Upload_Wizard","/wiki/Special:SpecialPages","/w/index.php?title=Isopropyl_myristate&oldid=542837114","/w/index.php?title=Isopropyl_myristate&action=info","/w/index.php?title=Special:Cite&page=Isopropyl_myristate&id=542837114","/w/index.php?title=Special:Book&bookcmd=book_creator&referer=Isopropyl+myristate","/w/index.php?title=Special:Book&bookcmd=render_article&arttitle=Isopropyl+myristate&oldid=542837114&writer=rl","/w/index.php?title=Isopropyl_myristate&printable=yes","//de.wikipedia.org/wiki/Isopropylmyristat","//fa.wikipedia.org/wiki/%D8%A7%DB%8C%D8%B2%D9%88%D9%BE%D8%B1%D9%88%D9%BE%DB%8C%D9%84_%D9%85%DB%8C%D8%B1%DB%8C%D8%B3%D8%AA%D8%A7%D8%AA","//fr.wikipedia.org/wiki/Myristate_d%27isopropyle","//nl.wikipedia.org/wiki/Isopropylmyristaat","//pt.wikipedia.org/wiki/Miristato_de_isopropila","//www.wikidata.org/wiki/Special:ItemByTitle/enwiki/Isopropyl myristate","//en.wikipedia.org/wiki/Wikipedia:Text_of_Creative_Commons_Attribution-ShareAlike_3.0_Unported_License","//creativecommons.org/licenses/by-sa/3.0/","//wikimediafoundation.org/wiki/Terms_of_Use","//www.wikimediafoundation.org/","//en.wikipedia.org/wiki/Wikipedia:Contact_us","//wikimediafoundation.org/wiki/Privacy_policy","/wiki/Wikipedia:About","/wiki/Wikipedia:General_disclaimer","http://en.m.wikipedia.org/wiki/Isopropyl_myristate","//wikimediafoundation.org/","//bits.wikimedia.org/images/wikimedia-button.png","//www.mediawiki.org/","//bits.wikimedia.org/static-1.21wmf10/skins/common/images/poweredby_mediawiki_88x31.png","//bits.wikimedia.org/en.wikipedia.org/load.php?debug=false&lang=en&modules=skins.vector&only=scripts&skin=vector&*","/w/index.php?title=MediaWiki:Gadget-ReferenceTooltips.js&action=raw&ctype=text/javascript&508635914","//bits.wikimedia.org/en.wikipedia.org/load.php?debug=false&lang=en&modules=site&only=scripts&skin=vector&*"],"instances":["perfumery"],"pdf":[],"categories":["Carboxylate esters","Lice"],"headings":["Uses","References","External links"],"image":["//upload.wikimedia.org/wikipedia/commons/thumb/6/6a/Isopropyl_myristate.png/200px-Isopropyl_myristate.png","//upload.wikimedia.org/wikipedia/en/thumb/f/fb/Yes_check.svg/7px-Yes_check.svg.png","//upload.wikimedia.org/wikipedia/en/thumb/f/fb/Yes_check.svg/14px-Yes_check.svg.png","//upload.wikimedia.org/wikipedia/en/thumb/f/fb/Yes_check.svg/10px-Yes_check.svg.png","//upload.wikimedia.org/wikipedia/commons/thumb/a/a2/X_mark.svg/10px-X_mark.svg.png","//bits.wikimedia.org/static-1.21wmf10/skins/vector/images/search-ltr.png?303-4","//bits.wikimedia.org/images/wikimedia-button.png","//bits.wikimedia.org/static-1.21wmf10/skins/common/images/poweredby_mediawiki_88x31.png"],"tags":[["fixative","perfumery"]],"members":["fixative"],"related":["Ester","Isopropanol","Myristic_acid","Pesticide","Pediculosis","Wax","Exoskeleton","Dehydration","Fixative_(perfumery)","Non-aqueous","Dentyl_pH","Prosthetic_make-up"]}