{"cursor":"8879","size":15,"audio":[],"currentlang":"en","article":"\n{{chembox\n| Verifiedfields = changed Watchedfields = changed verifiedrevid = 399005552\n| Name = Isoquinoline ImageFile = Isoquinoline numbered.svg ImageSize = 180px\n| ImageFileL1 = Isoquinoline-3D-balls.png ImageSizeL1 = 120 ImageAltL1 =\n| Isoquinoline molecule ImageNameL1 = C=black, H=white, N=blue ImageFileR1 = Isoquinoline-3D-\n| spacefill.png ImageSizeR1 = 120 ImageNameR1 = C=black, H=white, N=blue\n| ImageAltR1 = Isoquinoline molecule IUPACName = Isoquinoline OtherNames =\n| benzo[c]pyridine, 2-benzanine Section1 = {{Chembox Identifiers CASNo_Ref =\n| CASNo = 119-65-3 EINECS = 204-341-8 PubChem = 8405 ChEMBL_Ref = ChEMBL = 12315\n| ChemSpiderID_Ref = ChemSpiderID = 8098 DrugBank_Ref = DrugBank = DB04329\n| UNII_Ref = UNII = JGX76Y85M6 ChEBI_Ref = ChEBI = 16092 SMILES =\n| C1(C=NC=C2)=C2C=CC=C1 InChI = 1/C9H7N/c1-2-4-9-7-10-6-5-8(9)3-1/h1-7H InChIKey\n| = AWJUIBRHMBBTKR-UHFFFAOYAX StdInChI_Ref = StdInChI = 1S/C9H7N/c1-2-4-9-7-10-6-5-8(9)3-1/h1-\n| 7H StdInChIKey_Ref = StdInChIKey = AWJUIBRHMBBTKR-UHFFFAOYSA-N\n  }}\n| Section2 = {{Chembox Properties C = 9 H = 7 N = 1 Appearance = yellowish oily\n| liquid, hygroscopic platelets when solid Density = 1.099 g/cm 3\n| MeltingPtCL = 26 MeltingPtCH = 28 BoilingPtC = 242\n| pKa=pK BH +=5.14 Brown, H.C., et al., in\n| Baude, E.A. and Nachod, F.C., Determination of Organic Structures by Physical\n| Methods, Academic Press, New York, 1955.\n}} }}\n\n'Isoquinoline' is a heterocyclic aromatic organic compound. It is a structural\nisomer of quinoline. Isoquinoline and quinoline are benzopyridines, which are\ncomposed of a benzene ring fused to a pyridine ring. In a broader sense, the\nterm isoquinoline is used to make reference to isoquinoline derivatives. 1-\nBenzylisoquinoline is the structural backbone in naturally occurring alkaloids\nincluding papaverine. The isoquinoline ring in these natural compound derives\nfrom the aromatic amino acid tyrosine. Gilchrist, T.L. (1997). Heterocyclic\nChemistry (3rd ed.). Essex, UK: Addison Wesley Longman. Harris, J.;\nPope, W.J. \"isoQuinoline and the isoQuinoline-Reds\" Journal of the Chemical\nSociety (1922) volume 121, pp. 1029â1033. Katritsky, A.R.; Pozharskii,\nA.F. (2000). Handbook of Heterocyclic Chemistry (2nd ed.). Oxford, UK:\nElsevier. Katritsky, A.R.; Rees, C.W.; Scriven, E.F. (Eds.). (1996).\nComprehensive Heterocyclic Chemistry II: A Review of the Literature 1982â1995\n(Vol. 5). Tarrytown, NY: Elsevier. Nagatsu, T. \"Isoquinoline\nneurotoxins in the brain and Parkinson's disease\" Neuroscience Research (1997)\nvolume 29, pp. 99â111. O'Neil, Maryadele J. (Ed.). (2001). The Merck\nIndex (13th ed.). Whitehouse Station, NJ: Merck.\n","linknr":265,"url":"Isoquinoline","recorded":1374765574,"links":["/w/index.php?title=Isoquinoline&action=edit","/w/index.php?title=Isoquinoline&action=edit","//bits.wikimedia.org/favicon/wikipedia.ico","/w/opensearch_desc.php","//en.wikipedia.org/w/api.php?action=rsd","//creativecommons.org/licenses/by-sa/3.0/","/w/index.php?title=Special:RecentChanges&feed=atom","//bits.wikimedia.org/en.wikipedia.org/load.php?debug=false&lang=en&modules=ext.gadget.DRN-wizard%2CReferenceTooltips%2Ccharinsert%2Cteahouse%7Cext.rtlcite%2Cwikihiero%7Cext.uls.nojs%7Cmediawiki.legacy.commonPrint%2Cshared%7Cmw.PopUpMediaTransform%7Cskins.vector&only=styles&skin=vector&*","//bits.wikimedia.org/en.wikipedia.org/load.php?debug=false&lang=en&modules=site&only=styles&skin=vector&*","//bits.wikimedia.org/en.wikipedia.org/load.php?debug=false&lang=en&modules=startup&only=scripts&skin=vector&*","//bits.wikimedia.org/geoiplookup","//meta.wikimedia.org","#mw-navigation","#p-search","/wiki/File:Isoquinoline_numbered.svg","//upload.wikimedia.org/wikipedia/commons/thumb/2/2d/Isoquinoline_numbered.svg/180px-Isoquinoline_numbered.svg.png","/wiki/File:Isoquinoline-3D-balls.png","//upload.wikimedia.org/wikipedia/commons/thumb/1/1e/Isoquinoline-3D-balls.png/120px-Isoquinoline-3D-balls.png","/wiki/File:Isoquinoline-3D-spacefill.png","//upload.wikimedia.org/wikipedia/commons/thumb/a/a2/Isoquinoline-3D-spacefill.png/120px-Isoquinoline-3D-spacefill.png","/wiki/International_Union_of_Pure_and_Applied_Chemistry_nomenclature","/wiki/CAS_registry_number","http://www.commonchemistry.org/ChemicalDetail.aspx?ref=119-65-3","//upload.wikimedia.org/wikipedia/en/thumb/f/fb/Yes_check.svg/7px-Yes_check.svg.png","/wiki/PubChem","http://pubchem.ncbi.nlm.nih.gov/summary/summary.cgi?cid=8405","/wiki/ChemSpider","http://www.chemspider.com/8098","//upload.wikimedia.org/wikipedia/en/thumb/f/fb/Yes_check.svg/7px-Yes_check.svg.png","/wiki/Unique_Ingredient_Identifier","http://fdasis.nlm.nih.gov/srs/srsdirect.jsp?regno=JGX76Y85M6","//upload.wikimedia.org/wikipedia/commons/thumb/a/a2/X_mark.svg/7px-X_mark.svg.png","/wiki/EC_number_(chemistry)","http://esis.jrc.ec.europa.eu/lib/einecs_IS_reponse.php?genre=ECNO&entree=204-341-8","/wiki/DrugBank","http://www.drugbank.ca/drugs/DB04329","/wiki/ChEBI","https://www.ebi.ac.uk/chebi/searchId.do?chebiId=16092","//upload.wikimedia.org/wikipedia/commons/thumb/a/a2/X_mark.svg/7px-X_mark.svg.png","/wiki/ChEMBL","https://www.ebi.ac.uk/chembldb/index.php/compound/inspect/CHEMBL12315","//upload.wikimedia.org/wikipedia/commons/thumb/a/a2/X_mark.svg/7px-X_mark.svg.png","/wiki/Jmol","http://chemapps.stolaf.edu/jmol/jmol.php?model=C1%28C%3DNC%3DC2%29%3DC2C%3DCC%3DC1","/wiki/Simplified_molecular-input_line-entry_system","/wiki/International_Chemical_Identifier","//upload.wikimedia.org/wikipedia/en/thumb/f/fb/Yes_check.svg/7px-Yes_check.svg.png","//upload.wikimedia.org/wikipedia/en/thumb/f/fb/Yes_check.svg/7px-Yes_check.svg.png","/wiki/Molecular_formula","/wiki/Molar_mass","/wiki/Density","/wiki/Melting_point","/wiki/Boiling_point","/wiki/Acid_dissociation_constant","#cite_note-pka-1","//upload.wikimedia.org/wikipedia/commons/thumb/a/a2/X_mark.svg/14px-X_mark.svg.png","//en.wikipedia.org/w/index.php?title=Special:ComparePages&rev1=399005552&page2=Isoquinoline","/wiki/Wikipedia:WikiProject_Chemicals/Chembox_validation","//upload.wikimedia.org/wikipedia/en/thumb/f/fb/Yes_check.svg/10px-Yes_check.svg.png","//upload.wikimedia.org/wikipedia/commons/thumb/a/a2/X_mark.svg/10px-X_mark.svg.png","/wiki/Standard_state","/wiki/Wikipedia:Chemical_infobox#References","/wiki/Heterocyclic","/wiki/Aromatic","/wiki/Organic_compound","/wiki/Structural_isomer","/wiki/Quinoline","/wiki/Benzopyridine","/wiki/Benzene","/wiki/Pyridine","/wiki/Derivatization","/wiki/1-Benzylisoquinoline","/wiki/Alkaloids","/wiki/Papaverine","/wiki/Amino_acid","/wiki/Tyrosine","#cite_note-2","#cite_note-3","#cite_note-4","#cite_note-5","#cite_note-6","#cite_note-7","#Properties","#Production","#Applications_of_derivatives","#Isoquinolines_and_the_human_body","#Other_uses","#See_also","#References","#External_links","/w/index.php?title=Isoquinoline&action=edit&section=1","/wiki/Hygroscopic","/wiki/Unpleasant_odor","/wiki/Solubility","/wiki/Ethanol","/wiki/Acetone","/wiki/Diethyl_ether","/wiki/Carbon_disulfide","/wiki/Organic_solvent","/wiki/Acid","/wiki/Analog_(chemistry)","/wiki/Pyridine","/wiki/Base_(chemistry)","/wiki/Acid_dissociation_constant","#cite_note-pka-1","/wiki/Salts","/wiki/Strong_acid","/wiki/Adduct","/wiki/Lewis_acid","/w/index.php?title=Isoquinoline&action=edit&section=2","/wiki/Coal_tar","#cite_note-8","/wiki/Benzaldehyde","/wiki/Acid","/wiki/Solvent","/wiki/Benzylamine","/wiki/Glyoxal","/wiki/Acetal","/wiki/File:Pomeranz-Fritsch_einfach.svg","//upload.wikimedia.org/wikipedia/commons/thumb/5/5b/Pomeranz-Fritsch_einfach.svg/700px-Pomeranz-Fritsch_einfach.svg.png","/wiki/Bischler%E2%80%93Napieralski_reaction","/wiki/Phenylethylamine","/wiki/Phosphoryl_chloride","/wiki/Phosphorus_pentoxide","/wiki/File:Papaverine_bn.gif","//upload.wikimedia.org/wikipedia/commons/thumb/5/53/Papaverine_bn.gif/800px-Papaverine_bn.gif","/wiki/Pictet%E2%80%93Spengler_reaction","/wiki/File:Pictet-Gams_reaction.svg","//upload.wikimedia.org/wikipedia/commons/thumb/3/36/Pictet-Gams_reaction.svg/400px-Pictet-Gams_reaction.svg.png","/wiki/Pictet%E2%80%93Spengler_reaction","/wiki/Phenylethylamine","/wiki/Aldehyde","/wiki/Tetrahydroisoquinoline","/w/index.php?title=Dihydroisoquinoline&action=edit&redlink=1","/w/index.php?title=Isoquinoline&action=edit&section=3","/w/index.php?title=Dimethisoquin&action=edit&redlink=1","/wiki/File:Quinisocaine.svg","//upload.wikimedia.org/wikipedia/commons/thumb/7/7b/Quinisocaine.svg/200px-Quinisocaine.svg.png","/wiki/Quinapril","/w/index.php?title=Quinapirilat&action=edit&redlink=1","/wiki/Debrisoquine","/wiki/File:Antifungal_ex.gif","//upload.wikimedia.org/wikipedia/commons/9/92/Antifungal_ex.gif","/wiki/File:N-laurylisoquin.gif","//upload.wikimedia.org/wikipedia/commons/2/29/N-laurylisoquin.gif","/wiki/Papaverine","/wiki/File:Papaverin_-_Papaverine.svg","//upload.wikimedia.org/wikipedia/commons/thumb/7/7b/Papaverin_-_Papaverine.svg/250px-Papaverin_-_Papaverine.svg.png","/wiki/Tubocurarine","/wiki/Carbon","/wiki/Ester","/w/index.php?title=Isoquinoline&action=edit&section=4","/wiki/Parkinson%27s_disease","/wiki/Neurotoxins","/wiki/MPTP","/w/index.php?title=Tetrahydropyridine&action=edit&redlink=1","/wiki/Dopaminergic_neuron","/wiki/Tetrahydroisoquinoline","/w/index.php?title=Isoquinoline&action=edit&section=5","/wiki/Dyes","/wiki/Paints","/wiki/Insecticides","/wiki/Fungicide","/wiki/Solvent","/wiki/Liquid%E2%80%93liquid_extraction","/wiki/Resins","/wiki/Terpenes","/wiki/Corrosion","/w/index.php?title=Isoquinoline&action=edit&section=6","/wiki/Quinoline","/wiki/Pyridine","/wiki/Benzene","/wiki/Naphthalene","/wiki/Simple_aromatic_ring","/w/index.php?title=Isoquinoline&action=edit&section=7","#cite_ref-pka_1-0","#cite_ref-pka_1-1","#cite_ref-2","#cite_ref-3","#cite_ref-4","#cite_ref-5","#cite_ref-6","#cite_ref-7","#cite_ref-8","/w/index.php?title=Isoquinoline&action=edit&section=8","/wiki/File:PD-icon.svg","//upload.wikimedia.org/wikipedia/en/thumb/6/62/PD-icon.svg/12px-PD-icon.svg.png","/wiki/Public_domain","/wiki/Encyclop%C3%A6dia_Britannica_Eleventh_Edition","//en.wikipedia.org/w/index.php?title=Special:CentralAutoLogin/start&type=1x1&from=enwiki","http://en.wikipedia.org/w/index.php?title=Isoquinoline&oldid=564064749","/wiki/Help:Categories","/wiki/Category:Isoquinolines","/wiki/Category:Use_dmy_dates_from_June_2013","/wiki/Category:Articles_with_changed_FDA_identifier","/wiki/Category:Articles_with_changed_EBI_identifier","/wiki/Category:Chemboxes_which_contain_changes_to_verified_fields","/wiki/Category:Chemboxes_which_contain_changes_to_watched_fields","/wiki/Category:Wikipedia_articles_incorporating_a_citation_from_the_1911_Encyclopaedia_Britannica_with_no_article_parameter","/wiki/Category:Wikipedia_articles_incorporating_text_from_the_1911_Encyclop%C3%A6dia_Britannica","/w/index.php?title=Special:UserLogin&returnto=Isoquinoline&type=signup","/w/index.php?title=Special:UserLogin&returnto=Isoquinoline","/wiki/Isoquinoline","/wiki/Talk:Isoquinoline","#","/wiki/Isoquinoline","/w/index.php?title=Isoquinoline&action=edit","/w/index.php?title=Isoquinoline&action=history","#","/w/index.php","//bits.wikimedia.org/static-1.22wmf10/skins/vector/images/search-ltr.png?303-4","/wiki/Main_Page","/wiki/Main_Page","/wiki/Portal:Contents","/wiki/Portal:Featured_content","/wiki/Portal:Current_events","/wiki/Special:Random","//donate.wikimedia.org/wiki/Special:FundraiserRedirector?utm_source=donate&utm_medium=sidebar&utm_campaign=C13_en.wikipedia.org&uselang=en","/wiki/Help:Contents","/wiki/Wikipedia:About","/wiki/Wikipedia:Community_portal","/wiki/Special:RecentChanges","//en.wikipedia.org/wiki/Wikipedia:Contact_us","/wiki/Special:WhatLinksHere/Isoquinoline","/wiki/Special:RecentChangesLinked/Isoquinoline","/wiki/Wikipedia:File_Upload_Wizard","/wiki/Special:SpecialPages","/w/index.php?title=Isoquinoline&oldid=564064749","/w/index.php?title=Isoquinoline&action=info","//www.wikidata.org/wiki/Q412316","/w/index.php?title=Special:Cite&page=Isoquinoline&id=564064749","/w/index.php?title=Special:Book&bookcmd=book_creator&referer=Isoquinoline","/w/index.php?title=Special:Book&bookcmd=render_article&arttitle=Isoquinoline&oldid=564064749&writer=rl","/w/index.php?title=Isoquinoline&printable=yes","//de.wikipedia.org/wiki/Isochinolin","//es.wikipedia.org/wiki/Isoquinole%C3%ADna","//fa.wikipedia.org/wiki/%D8%A7%DB%8C%D8%B2%D9%88%DA%A9%D9%88%D8%A6%DB%8C%D9%86%D9%88%D9%84%DB%8C%D9%86","//fr.wikipedia.org/wiki/Isoquinol%C3%A9ine","//it.wikipedia.org/wiki/Isochinolina","//lv.wikipedia.org/wiki/Izohinol%C4%ABns","//nl.wikipedia.org/wiki/Isochinoline","//ja.wikipedia.org/wiki/%E3%82%A4%E3%82%BD%E3%82%AD%E3%83%8E%E3%83%AA%E3%83%B3","//no.wikipedia.org/wiki/Isokinolin","//pl.wikipedia.org/wiki/Izochinolina","//pt.wikipedia.org/wiki/Isoquinolina","//ru.wikipedia.org/wiki/%D0%98%D0%B7%D0%BE%D1%85%D0%B8%D0%BD%D0%BE%D0%BB%D0%B8%D0%BD","//sr.wikipedia.org/wiki/Izohinolin","//sv.wikipedia.org/wiki/Isokinolin","//zh.wikipedia.org/wiki/%E5%BC%82%E5%96%B9%E5%95%89","#","//www.wikidata.org/wiki/Q412316#sitelinks-wikipedia","//en.wikipedia.org/wiki/Wikipedia:Text_of_Creative_Commons_Attribution-ShareAlike_3.0_Unported_License","//creativecommons.org/licenses/by-sa/3.0/","//wikimediafoundation.org/wiki/Terms_of_Use","//wikimediafoundation.org/wiki/Privacy_policy","//www.wikimediafoundation.org/","//wikimediafoundation.org/wiki/Privacy_policy","/wiki/Wikipedia:About","/wiki/Wikipedia:General_disclaimer","//en.wikipedia.org/wiki/Wikipedia:Contact_us","//en.m.wikipedia.org/wiki/Isoquinoline","//wikimediafoundation.org/","//bits.wikimedia.org/images/wikimedia-button.png","//www.mediawiki.org/","//bits.wikimedia.org/static-1.22wmf10/skins/common/images/poweredby_mediawiki_88x31.png","//bits.wikimedia.org/en.wikipedia.org/load.php?debug=false&lang=en&modules=site&only=scripts&skin=vector&*"],"instances":["chemistry","chemistry"],"pdf":[],"categories":["Isoquinolines|"],"headings":["Properties","Production","Applications of derivatives","Isoquinolines and the human body","Other uses","See also","References","External links"],"image":["//upload.wikimedia.org/wikipedia/commons/thumb/2/2d/Isoquinoline_numbered.svg/180px-Isoquinoline_numbered.svg.png","//upload.wikimedia.org/wikipedia/commons/thumb/1/1e/Isoquinoline-3D-balls.png/120px-Isoquinoline-3D-balls.png","//upload.wikimedia.org/wikipedia/commons/thumb/a/a2/Isoquinoline-3D-spacefill.png/120px-Isoquinoline-3D-spacefill.png","//upload.wikimedia.org/wikipedia/en/thumb/f/fb/Yes_check.svg/7px-Yes_check.svg.png","//upload.wikimedia.org/wikipedia/en/thumb/f/fb/Yes_check.svg/7px-Yes_check.svg.png","//upload.wikimedia.org/wikipedia/commons/thumb/a/a2/X_mark.svg/7px-X_mark.svg.png","//upload.wikimedia.org/wikipedia/commons/thumb/a/a2/X_mark.svg/7px-X_mark.svg.png","//upload.wikimedia.org/wikipedia/commons/thumb/a/a2/X_mark.svg/7px-X_mark.svg.png","//upload.wikimedia.org/wikipedia/en/thumb/f/fb/Yes_check.svg/7px-Yes_check.svg.png","//upload.wikimedia.org/wikipedia/en/thumb/f/fb/Yes_check.svg/7px-Yes_check.svg.png","//upload.wikimedia.org/wikipedia/commons/thumb/a/a2/X_mark.svg/14px-X_mark.svg.png","//upload.wikimedia.org/wikipedia/en/thumb/f/fb/Yes_check.svg/10px-Yes_check.svg.png","//upload.wikimedia.org/wikipedia/commons/thumb/a/a2/X_mark.svg/10px-X_mark.svg.png","//upload.wikimedia.org/wikipedia/commons/thumb/5/5b/Pomeranz-Fritsch_einfach.svg/700px-Pomeranz-Fritsch_einfach.svg.png","//upload.wikimedia.org/wikipedia/commons/thumb/5/53/Papaverine_bn.gif/800px-Papaverine_bn.gif","//upload.wikimedia.org/wikipedia/commons/thumb/3/36/Pictet-Gams_reaction.svg/400px-Pictet-Gams_reaction.svg.png","//upload.wikimedia.org/wikipedia/commons/thumb/7/7b/Quinisocaine.svg/200px-Quinisocaine.svg.png","//upload.wikimedia.org/wikipedia/commons/9/92/Antifungal_ex.gif","//upload.wikimedia.org/wikipedia/commons/2/29/N-laurylisoquin.gif","//upload.wikimedia.org/wikipedia/commons/thumb/7/7b/Papaverin_-_Papaverine.svg/250px-Papaverin_-_Papaverine.svg.png","//upload.wikimedia.org/wikipedia/en/thumb/6/62/PD-icon.svg/12px-PD-icon.svg.png","//en.wikipedia.org/w/index.php?title=Special:CentralAutoLogin/start&type=1x1&from=enwiki","//bits.wikimedia.org/static-1.22wmf10/skins/vector/images/search-ltr.png?303-4","//bits.wikimedia.org/images/wikimedia-button.png","//bits.wikimedia.org/static-1.22wmf10/skins/common/images/poweredby_mediawiki_88x31.png"],"tags":[["analog","chemistry"],["base","chemistry"]],"members":["base","analog"],"related":["Heterocyclic","Aromatic","Organic_compound","Structural_isomer","Quinoline","Benzopyridine","Benzene","Pyridine","Derivatization","1-Benzylisoquinoline","Alkaloids","Papaverine","Amino_acid","Tyrosine","Hygroscopic","Unpleasant_odor","Solubility","Ethanol","Acetone","Diethyl_ether","Carbon_disulfide","Organic_solvent","Acid","Analog_(chemistry)","Pyridine","Base_(chemistry)","Acid_dissociation_constant","Salts","Strong_acid","Adduct","Lewis_acid","Coal_tar","Benzaldehyde","Acid","Solvent","Benzylamine","Glyoxal","Acetal","Bischler–Napieralski_reaction","Phenylethylamine","Phosphoryl_chloride","Phosphorus_pentoxide","Pictet–Spengler_reaction","Pictet–Spengler_reaction","Phenylethylamine","Aldehyde","Tetrahydroisoquinoline","Dihydroisoquinoline","Dimethisoquin","Quinapril","Quinapirilat","Debrisoquine","Papaverine","Tubocurarine","Carbon","Ester","Parkinson's_disease","Neurotoxins","MPTP","Tetrahydropyridine","Dopaminergic_neuron","Tetrahydroisoquinoline","Dyes","Paints","Insecticides","Fungicide","Solvent","Liquid–liquid_extraction","Resins","Terpenes","Corrosion","Quinoline","Pyridine","Benzene","Naphthalene","Simple_aromatic_ring"]}