{"cursor":"5783","size":15,"audio":[],"currentlang":"en","article":"{{chembox\n| Verifiedfields = changed verifiedrevid = 462248420 Name = Menthone ImageFile =\n| Menthone.png ImageSize = 100px ImageName = l-Menthone IUPACName = (2S,5R)-2-Isopropyl-5-\n| methylcyclohexanone OtherNames = l-Menthone Section1 = {{Chembox Identifiers\n| ChemSpiderID_Ref = ChemSpiderID = 24636 ChEMBL_Ref = ChEMBL = 276311 PubChem =\n| 26447 InChI = 1/C10H18O/c1-7(2)9-5-4-8(3)6-10(9)11/h7-9H,4-6H2,1-3H3/t8-\n| ,9+/m1/s1 InChIKey = NFLGAXVYCFJBMK-BDAKNGLRBF StdInChI_Ref = StdInChI = 1S/C10H18O/c1-7(2)9-5-4-8(3)6-10(9)11/h7-9H,4-6H2,1-3H3/t8-\n| ,9+/m1/s1 StdInChIKey_Ref = StdInChIKey = NFLGAXVYCFJBMK-BDAKNGLRSA-N\n| CASNo_Ref = CASNo = 14073-97-3 ChEBI_Ref = ChEBI = 15410 SMILES =\n| O=C1C[C@H](C)CC[C@H]1C(C)C\n}}\n| Section2 = {{Chembox Properties Formula = C 10 H18 O\n| MolarMass = 154.25 g/mol Density = 0.895 g/cm³ MeltingPt = −6 °C BoilingPt\n| = 207 °C\n  }} }}\n\n'Menthone' is a naturally occurring organic compound with a molecular\nformula C 10 H18 O. l-Menthone (or (2S, 5R)-trans-2-isopropyl-5-\nmethylcyclohexanone), shown at right, is the most abundant in nature of the\nfour possible stereoisomers. Menthone is a monoterpene and a ketone. It is\nstructurally related to menthol which has a secondary alcohol in place of\nthe carbonyl.\n\nMenthone is used in perfumery and cosmetics for its characteristic aromatic and\nminty odor.\n","linknr":172,"url":"Menthone","recorded":1374780044,"links":["/w/index.php?title=Menthone&action=edit","/w/index.php?title=Menthone&action=edit","//bits.wikimedia.org/favicon/wikipedia.ico","/w/opensearch_desc.php","//en.wikipedia.org/w/api.php?action=rsd","//creativecommons.org/licenses/by-sa/3.0/","/w/index.php?title=Special:RecentChanges&feed=atom","//bits.wikimedia.org/en.wikipedia.org/load.php?debug=false&lang=en&modules=ext.gadget.DRN-wizard%2CReferenceTooltips%2Ccharinsert%2Cteahouse%7Cext.rtlcite%2Cwikihiero%7Cext.uls.nojs%7Cmediawiki.legacy.commonPrint%2Cshared%7Cmw.PopUpMediaTransform%7Cskins.vector&only=styles&skin=vector&*","//bits.wikimedia.org/en.wikipedia.org/load.php?debug=false&lang=en&modules=site&only=styles&skin=vector&*","//bits.wikimedia.org/en.wikipedia.org/load.php?debug=false&lang=en&modules=startup&only=scripts&skin=vector&*","//bits.wikimedia.org/geoiplookup","//meta.wikimedia.org","#mw-navigation","#p-search","/wiki/File:Menthone.png","//upload.wikimedia.org/wikipedia/commons/thumb/5/58/Menthone.png/100px-Menthone.png","/wiki/International_Union_of_Pure_and_Applied_Chemistry_nomenclature","/wiki/CAS_registry_number","http://www.commonchemistry.org/ChemicalDetail.aspx?ref=14073-97-3","//upload.wikimedia.org/wikipedia/commons/thumb/a/a2/X_mark.svg/7px-X_mark.svg.png","/wiki/PubChem","http://pubchem.ncbi.nlm.nih.gov/summary/summary.cgi?cid=26447","/wiki/ChemSpider","http://www.chemspider.com/24636","//upload.wikimedia.org/wikipedia/en/thumb/f/fb/Yes_check.svg/7px-Yes_check.svg.png","/wiki/ChEBI","https://www.ebi.ac.uk/chebi/searchId.do?chebiId=15410","//upload.wikimedia.org/wikipedia/en/thumb/f/fb/Yes_check.svg/7px-Yes_check.svg.png","/wiki/ChEMBL","https://www.ebi.ac.uk/chembldb/index.php/compound/inspect/CHEMBL276311","//upload.wikimedia.org/wikipedia/en/thumb/f/fb/Yes_check.svg/7px-Yes_check.svg.png","/wiki/Jmol","http://chemapps.stolaf.edu/jmol/jmol.php?model=O%3DC1C%5BC%40H%5D%28C%29CC%5BC%40H%5D1C%28C%29C","/wiki/Simplified_molecular-input_line-entry_system","/wiki/International_Chemical_Identifier","//upload.wikimedia.org/wikipedia/en/thumb/f/fb/Yes_check.svg/7px-Yes_check.svg.png","//upload.wikimedia.org/wikipedia/en/thumb/f/fb/Yes_check.svg/7px-Yes_check.svg.png","/wiki/Chemical_formula","/wiki/Molar_mass","/wiki/Density","/wiki/Melting_point","/wiki/Boiling_point","//upload.wikimedia.org/wikipedia/commons/thumb/a/a2/X_mark.svg/14px-X_mark.svg.png","//en.wikipedia.org/w/index.php?title=Special:ComparePages&rev1=462248420&page2=Menthone","/wiki/Wikipedia:WikiProject_Chemicals/Chembox_validation","//upload.wikimedia.org/wikipedia/en/thumb/f/fb/Yes_check.svg/10px-Yes_check.svg.png","//upload.wikimedia.org/wikipedia/commons/thumb/a/a2/X_mark.svg/10px-X_mark.svg.png","/wiki/Standard_state","/wiki/Wikipedia:Chemical_infobox#References","/wiki/Organic_compound","/wiki/Stereoisomer","/wiki/Terpene","/wiki/Ketone","/wiki/Menthol","/wiki/Alcohol","#Occurrence","#Preparation","#Usage_.28Pesticide.29","#History","#References","#External_links","/w/index.php?title=Menthone&action=edit&section=1","/wiki/Essential_oil","/wiki/Mentha_pulegium","/wiki/Peppermint","/wiki/Pelargonium","/w/index.php?title=Menthone&action=edit&section=2","/wiki/Oxidation","/wiki/Dichromate","#cite_note-1","/w/index.php?title=Menthone&action=edit&section=3","#cite_note-Krieger2001-2","/w/index.php?title=Menthone&action=edit&section=4","#cite_note-3","#cite_note-read-4","/wiki/Chromic_acid","/wiki/Ernst_Beckmann","/wiki/Sulfuric_acid","/wiki/Optical_rotation","#cite_note-5","/wiki/Tautomer","/w/index.php?title=Menthone&action=edit&section=5","#cite_ref-1","http://www.orgsyn.org/orgsyn/orgsyn/prepContent.asp?prep=cv1p0340","/wiki/Organic_Syntheses","#cite_ref-Krieger2001_2-0","http://books.google.com/books?id=ib8Qhju9EQEC&pg=PA823","/wiki/International_Standard_Book_Number","/wiki/Special:BookSources/978-0-12-426260-7","#cite_ref-3","/wiki/Journal_of_the_Chemical_Society","/wiki/Digital_object_identifier","http://dx.doi.org/10.1039%2FCT8813900077","#cite_ref-read_4-0","/wiki/Chemical_Reviews","/wiki/Digital_object_identifier","http://dx.doi.org/10.1021%2Fcr60025a001","#cite_ref-5","/wiki/Ernst_Beckmann","/wiki/Liebigs_Annalen","/wiki/Digital_object_identifier","http://dx.doi.org/10.1002%2Fjlac.18892500306","/w/index.php?title=Menthone&action=edit&section=6","/wiki/Molecular_modelling","http://www.ch.ic.ac.uk/wiki/index.php/Second_Year_Modelling_Workshop#Project_9.__Menthone.2Fisomenthone:_Thermodynamic.2C_Kinetic_and_Bridgehead_enols","http://www.chemspider.com/Chemical-Structure.24636.html","/wiki/ChemSpider","//en.wikipedia.org/w/index.php?title=Special:CentralAutoLogin/start&type=1x1&from=enwiki","http://en.wikipedia.org/w/index.php?title=Menthone&oldid=550770111","/wiki/Help:Categories","/wiki/Category:Flavors","/wiki/Category:Ketones","/wiki/Category:Perfume_ingredients","/wiki/Category:Monoterpenes","/wiki/Category:Articles_with_changed_CASNo","/wiki/Category:Chemboxes_which_contain_changes_to_verified_fields","/w/index.php?title=Special:UserLogin&returnto=Menthone&type=signup","/w/index.php?title=Special:UserLogin&returnto=Menthone","/wiki/Menthone","/wiki/Talk:Menthone","#","/wiki/Menthone","/w/index.php?title=Menthone&action=edit","/w/index.php?title=Menthone&action=history","#","/w/index.php","//bits.wikimedia.org/static-1.22wmf10/skins/vector/images/search-ltr.png?303-4","/wiki/Main_Page","/wiki/Main_Page","/wiki/Portal:Contents","/wiki/Portal:Featured_content","/wiki/Portal:Current_events","/wiki/Special:Random","//donate.wikimedia.org/wiki/Special:FundraiserRedirector?utm_source=donate&utm_medium=sidebar&utm_campaign=C13_en.wikipedia.org&uselang=en","/wiki/Help:Contents","/wiki/Wikipedia:About","/wiki/Wikipedia:Community_portal","/wiki/Special:RecentChanges","//en.wikipedia.org/wiki/Wikipedia:Contact_us","/wiki/Special:WhatLinksHere/Menthone","/wiki/Special:RecentChangesLinked/Menthone","/wiki/Wikipedia:File_Upload_Wizard","/wiki/Special:SpecialPages","/w/index.php?title=Menthone&oldid=550770111","/w/index.php?title=Menthone&action=info","//www.wikidata.org/wiki/Q424902","/w/index.php?title=Special:Cite&page=Menthone&id=550770111","/w/index.php?title=Special:Book&bookcmd=book_creator&referer=Menthone","/w/index.php?title=Special:Book&bookcmd=render_article&arttitle=Menthone&oldid=550770111&writer=rl","/w/index.php?title=Menthone&printable=yes","//bg.wikipedia.org/wiki/%D0%9C%D0%B5%D0%BD%D1%82%D0%BE%D0%BD","//de.wikipedia.org/wiki/Menthon","//fa.wikipedia.org/wiki/%D9%85%D9%86%D8%AA%D9%88%D9%86","//ja.wikipedia.org/wiki/%E3%83%A1%E3%83%B3%E3%83%88%E3%83%B3","//pl.wikipedia.org/wiki/Menton_(chemia)","//ru.wikipedia.org/wiki/%D0%9C%D0%B5%D0%BD%D1%82%D0%BE%D0%BD_(%D0%B2%D0%B5%D1%89%D0%B5%D1%81%D1%82%D0%B2%D0%BE)","#","//www.wikidata.org/wiki/Q424902#sitelinks-wikipedia","//en.wikipedia.org/wiki/Wikipedia:Text_of_Creative_Commons_Attribution-ShareAlike_3.0_Unported_License","//creativecommons.org/licenses/by-sa/3.0/","//wikimediafoundation.org/wiki/Terms_of_Use","//wikimediafoundation.org/wiki/Privacy_policy","//www.wikimediafoundation.org/","//wikimediafoundation.org/wiki/Privacy_policy","/wiki/Wikipedia:About","/wiki/Wikipedia:General_disclaimer","//en.wikipedia.org/wiki/Wikipedia:Contact_us","//en.m.wikipedia.org/wiki/Menthone","//wikimediafoundation.org/","//bits.wikimedia.org/images/wikimedia-button.png","//www.mediawiki.org/","//bits.wikimedia.org/static-1.22wmf10/skins/common/images/poweredby_mediawiki_88x31.png","//bits.wikimedia.org/en.wikipedia.org/load.php?debug=false&lang=en&modules=site&only=scripts&skin=vector&*"],"instances":[],"pdf":[],"categories":["Flavors","Ketones","Perfume ingredients","Monoterpenes"],"headings":["Occurrence","Preparation","Usage (Pesticide)","History","References","External links"],"image":["//upload.wikimedia.org/wikipedia/commons/thumb/5/58/Menthone.png/100px-Menthone.png","//upload.wikimedia.org/wikipedia/commons/thumb/a/a2/X_mark.svg/7px-X_mark.svg.png","//upload.wikimedia.org/wikipedia/en/thumb/f/fb/Yes_check.svg/7px-Yes_check.svg.png","//upload.wikimedia.org/wikipedia/en/thumb/f/fb/Yes_check.svg/7px-Yes_check.svg.png","//upload.wikimedia.org/wikipedia/en/thumb/f/fb/Yes_check.svg/7px-Yes_check.svg.png","//upload.wikimedia.org/wikipedia/en/thumb/f/fb/Yes_check.svg/7px-Yes_check.svg.png","//upload.wikimedia.org/wikipedia/en/thumb/f/fb/Yes_check.svg/7px-Yes_check.svg.png","//upload.wikimedia.org/wikipedia/commons/thumb/a/a2/X_mark.svg/14px-X_mark.svg.png","//upload.wikimedia.org/wikipedia/en/thumb/f/fb/Yes_check.svg/10px-Yes_check.svg.png","//upload.wikimedia.org/wikipedia/commons/thumb/a/a2/X_mark.svg/10px-X_mark.svg.png","//en.wikipedia.org/w/index.php?title=Special:CentralAutoLogin/start&type=1x1&from=enwiki","//bits.wikimedia.org/static-1.22wmf10/skins/vector/images/search-ltr.png?303-4","//bits.wikimedia.org/images/wikimedia-button.png","//bits.wikimedia.org/static-1.22wmf10/skins/common/images/poweredby_mediawiki_88x31.png"],"tags":[],"members":[],"related":["Organic_compound","Stereoisomer","Terpene","Ketone","Menthol","Alcohol","Essential_oil","Mentha_pulegium","Peppermint","Oxidation","Dichromate","Journal_of_the_Chemical_Society","Chemical_Reviews","Chromic_acid","Ernst_Beckmann","Sulfuric_acid","Optical_rotation","Ernst_Beckmann","Liebigs_Annalen","Tautomer","Molecular_modelling","ChemSpider"]}