{"cursor":"4349","size":15,"audio":[],"currentlang":"en","article":"{{Chembox\n| Verifiedfields = changed verifiedrevid = 464362130 ImageFile = MEK peroxide\n| linear dimer.png PIN = 2-Hydroperoxy-2-((2-hydroperoxybutan-2-yl)peroxy)butane\n| SystematicName = 2-[(2-Hydroperoxybutan-2-yl)peroxy]butane-2-peroxol\n| OtherNames = Ketonox\nMepox Thermacure\n| Section1 = {{Chembox Identifiers CASNo = 1338-23-4 CASNo_Ref = PubChem =\n| 3672772 PubChem_Ref = ChemSpiderID = 2905622 ChemSpiderID_Ref = EINECS = 215-661-\n| 2 UNNumber = 3105 MeSHName = Methyl+ethyl+ketone+peroxide Beilstein = 1759757\n| SMILES = CCC(C)(OO)OOC(C)(CC)OO StdInChI = 1S/C8H18O6/c1-5-7(3,11-9)13-14-8(4,6-2)12-10/h9-10H,5-6H2,1-\n| 4H3 StdInChI_Ref = StdInChIKey = WFUGQJXVXHBTEM-UHFFFAOYSA-N StdInChIKey_Ref =\n}}\n| Section2 = {{Chembox Properties C = 8 H = 18 O = 6 ExactMass =\n| 210.110338308 g mol -1 Appearance = Colorless liquid Density =\n| 1.170 g cm -3\n}}\n| Section3 = {{Chembox Explosive ShockSens = High ExplosiveV = 5200 m\n| s -1\n}}\n| Section4 = {{Chembox Hazards MainHazards = Explosive, Toxic FlashPt = 82 °C\n}} }}\n\n'Methyl ethyl ketone peroxide' (MEKP) is an organic peroxide, a high explosive\nsimilar to acetone peroxide. MEKP is a colorless, oily liquid whereas acetone\nperoxide is a white powder at STP; MEKP is slightly less sensitive to shock and\ntemperature, and more stable in storage. Depending on the experimental\nconditions, several different adducts of methyl ethyl ketone and hydrogen\nperoxide are known. The first to be reported was a cyclic dimer,\nC 8H 16 O4 , in 1906. Later studies\nfound that a linear dimer is the most prevalent in the mixture of products\ntypically obtained, and this is the form that is typically quoted in\nthe commercially available material from chemical supply companies.\n\nDilute solutions of 30 to 60% MEKP are used in industry and by hobbyists as the\ncatalyst which initiates the Crosslinking of unsaturated polyester resins used\nin glass-reinforced plastic, and casting. For this application, MEKP is\ndissolved in dimethyl phthalate, cyclohexane peroxide, or diallyl phthalate to\nreduce sensitivity to shock. Benzoyl peroxide can be used for the same purpose.\n\nMEKP is a severe skin irritant and can cause progressive corrosive damage or\nblindness.\n\nMEKP, acetone peroxide and HMTD have all been reported to be the explosives used\nin the alleged 2006 transatlantic aircraft plot.\n","linknr":159,"url":"Methyl_ethyl_ketone_peroxide","recorded":1364166306,"links":["/w/index.php?title=Methyl_ethyl_ketone_peroxide&action=edit","/w/index.php?title=Methyl_ethyl_ketone_peroxide&action=edit","//en.wikipedia.org/apple-touch-icon.png","//bits.wikimedia.org/favicon/wikipedia.ico","/w/opensearch_desc.php","//en.wikipedia.org/w/api.php?action=rsd","//creativecommons.org/licenses/by-sa/3.0/","/w/index.php?title=Special:RecentChanges&feed=atom","//bits.wikimedia.org/en.wikipedia.org/load.php?debug=false&lang=en&modules=ext.gadget.DRN-wizard%2CReferenceTooltips%2Ccharinsert%2Cteahouse%7Cext.wikihiero%7Cmediawiki.legacy.commonPrint%2Cshared%7Cmw.PopUpMediaTransform%7Cskins.vector&only=styles&skin=vector&*","//bits.wikimedia.org/en.wikipedia.org/load.php?debug=false&lang=en&modules=site&only=styles&skin=vector&*","//bits.wikimedia.org/en.wikipedia.org/load.php?debug=false&lang=en&modules=startup&only=scripts&skin=vector&*","//bits.wikimedia.org/geoiplookup","//meta.wikimedia.org","#mw-head","#p-search","/wiki/File:MEK_peroxide_linear_dimer.png","//upload.wikimedia.org/wikipedia/commons/thumb/9/99/MEK_peroxide_linear_dimer.png/200px-MEK_peroxide_linear_dimer.png","/wiki/Preferred_IUPAC_name","/wiki/Wikipedia:Citation_needed","/wiki/IUPAC_nomenclature","/wiki/Wikipedia:Citation_needed","/wiki/CAS_registry_number","http://www.commonchemistry.org/ChemicalDetail.aspx?ref=1338-23-4","//upload.wikimedia.org/wikipedia/en/thumb/f/fb/Yes_check.svg/7px-Yes_check.svg.png","/wiki/PubChem","http://pubchem.ncbi.nlm.nih.gov/summary/summary.cgi?cid=3672772","/wiki/ChemSpider","http://www.chemspider.com/2905622","//upload.wikimedia.org/wikipedia/en/thumb/f/fb/Yes_check.svg/7px-Yes_check.svg.png","/wiki/EC_number_(chemistry)","http://esis.jrc.ec.europa.eu/lib/einecs_IS_reponse.php?genre=ECNO&entree=215-661-2","/wiki/UN_number","/wiki/Medical_Subject_Headings","http://www.nlm.nih.gov/cgi/mesh/2007/MB_cgi?mode=&term=Methyl+ethyl+ketone+peroxide","/wiki/Beilstein_database","/wiki/Jmol","http://chemapps.stolaf.edu/jmol/jmol.php?model=CCC%28C%29%28OO%29OOC%28C%29%28CC%29OO","/wiki/Simplified_molecular-input_line-entry_system","/wiki/International_Chemical_Identifier","//upload.wikimedia.org/wikipedia/commons/thumb/a/a2/X_mark.svg/7px-X_mark.svg.png","//upload.wikimedia.org/wikipedia/commons/thumb/a/a2/X_mark.svg/7px-X_mark.svg.png","/wiki/Molecular_formula","/wiki/Molar_mass","/wiki/Density","/wiki/Shock_sensitivity","/wiki/Explosive_velocity","/wiki/Worker_safety_and_health","/wiki/Flash_point","//upload.wikimedia.org/wikipedia/commons/thumb/a/a2/X_mark.svg/14px-X_mark.svg.png","//en.wikipedia.org/w/index.php?title=Special:ComparePages&rev1=464362130&page2=Methyl+ethyl+ketone+peroxide","/wiki/Wikipedia:WikiProject_Chemicals/Chembox_validation","//upload.wikimedia.org/wikipedia/en/thumb/f/fb/Yes_check.svg/10px-Yes_check.svg.png","//upload.wikimedia.org/wikipedia/commons/thumb/a/a2/X_mark.svg/10px-X_mark.svg.png","/wiki/Standard_state","/wiki/Wikipedia:Chemical_infobox#References","/wiki/Organic_peroxide","/wiki/Acetone_peroxide","/wiki/Standard_conditions_for_temperature_and_pressure","/wiki/Methyl_ethyl_ketone","/wiki/Hydrogen_peroxide","#cite_note-1","#cite_note-2","#cite_note-3","/wiki/Solution","/wiki/Catalyst","/wiki/Crosslinking","/wiki/Unsaturated_polyester_resin","/wiki/Glass-reinforced_plastic","/wiki/Dimethyl_phthalate","/w/index.php?title=Cyclohexane_peroxide&action=edit&redlink=1","/w/index.php?title=Diallyl_phthalate&action=edit&redlink=1","/wiki/Benzoyl_peroxide","/wiki/Hexamethylene_triperoxide_diamine","/wiki/2006_transatlantic_aircraft_plot","/wiki/Wikipedia:Citation_needed","/w/index.php?title=Methyl_ethyl_ketone_peroxide&action=edit&section=1","#cite_ref-1","#cite_ref-2","/wiki/Digital_object_identifier","http://dx.doi.org/10.1021%2Fja01530a068","#cite_ref-3","http://www.sigmaaldrich.com/catalog/Lookup.do?N5=All&N3=mode+matchpartialmax&N4=2-Butanone+peroxide&D7=0&D10=2-Butanone+peroxide&N1=S_ID&ST=RS&N25=0&F=PR","/wiki/Sigma-Aldrich","http://www.sigmaaldrich.com/catalog/Lookup.do?N5=All&N3=mode+matchpartialmax&N4=2-Butanone+peroxide&D7=0&D10=2-Butanone+peroxide&N1=S_ID&ST=RS&N25=0&F=PR","/w/index.php?title=Methyl_ethyl_ketone_peroxide&action=edit&section=2","/wiki/Methyl_ethyl_ketone","/wiki/Acetone_Peroxide","/w/index.php?title=Methyl_ethyl_ketone_peroxide&action=edit&section=3","http://www.theregister.co.uk/2006/08/17/flying_toilet_terror_labs/","http://www.nytimes.com/2006/08/28/world/europe/28plot.html?ex=1314417600&en=e1d83c082e48e461&ei=5088&partner=rssnyt&emc=rss","http://www.freeinfosociety.com/site.php?postnum=365","http://en.wikipedia.org/w/index.php?title=Methyl_ethyl_ketone_peroxide&oldid=540608606","/wiki/Help:Categories","/wiki/Category:Liquid_explosives","/wiki/Category:Ketals","/wiki/Category:Organic_peroxides","/wiki/Category:Radical_initiators","/wiki/Category:All_articles_with_unsourced_statements","/wiki/Category:Articles_with_unsourced_statements_from_May_2011","/wiki/Category:Chemboxes_which_contain_changes_to_verified_fields","/wiki/Category:Articles_with_unsourced_statements_from_September_2012","/wiki/Category:Use_dmy_dates_from_May_2011","/w/index.php?title=Special:UserLogin&returnto=Methyl+ethyl+ketone+peroxide&type=signup","/w/index.php?title=Special:UserLogin&returnto=Methyl+ethyl+ketone+peroxide","/wiki/Methyl_ethyl_ketone_peroxide","/wiki/Talk:Methyl_ethyl_ketone_peroxide","#","/wiki/Methyl_ethyl_ketone_peroxide","/w/index.php?title=Methyl_ethyl_ketone_peroxide&action=edit","/w/index.php?title=Methyl_ethyl_ketone_peroxide&action=history","#","/w/index.php","//bits.wikimedia.org/static-1.21wmf11/skins/vector/images/search-ltr.png?303-4","/wiki/Main_Page","/wiki/Main_Page","/wiki/Portal:Contents","/wiki/Portal:Featured_content","/wiki/Portal:Current_events","/wiki/Special:Random","//donate.wikimedia.org/wiki/Special:FundraiserRedirector?utm_source=donate&utm_medium=sidebar&utm_campaign=C13_en.wikipedia.org&uselang=en","/wiki/Help:Contents","/wiki/Wikipedia:About","/wiki/Wikipedia:Community_portal","/wiki/Special:RecentChanges","/wiki/Wikipedia:Contact_us","/wiki/Special:WhatLinksHere/Methyl_ethyl_ketone_peroxide","/wiki/Special:RecentChangesLinked/Methyl_ethyl_ketone_peroxide","/wiki/Wikipedia:File_Upload_Wizard","/wiki/Special:SpecialPages","/w/index.php?title=Methyl_ethyl_ketone_peroxide&oldid=540608606","/w/index.php?title=Methyl_ethyl_ketone_peroxide&action=info","/w/index.php?title=Special:Cite&page=Methyl_ethyl_ketone_peroxide&id=540608606","/w/index.php?title=Special:Book&bookcmd=book_creator&referer=Methyl+ethyl+ketone+peroxide","/w/index.php?title=Special:Book&bookcmd=render_article&arttitle=Methyl+ethyl+ketone+peroxide&oldid=540608606&writer=rl","/w/index.php?title=Methyl_ethyl_ketone_peroxide&printable=yes","//fa.wikipedia.org/wiki/%D9%85%D8%AA%DB%8C%D9%84_%D8%A7%D8%AA%DB%8C%D9%84_%DA%A9%D8%AA%D9%88%D9%86_%D9%BE%D8%B1%D9%88%DA%A9%D8%B3%DB%8C%D8%AF","//fr.wikipedia.org/wiki/Peroxyde_de_m%C3%A9thyl%C3%A9thylc%C3%A9tone","//he.wikipedia.org/wiki/MEKP","//ja.wikipedia.org/wiki/%E3%83%A1%E3%83%81%E3%83%AB%E3%82%A8%E3%83%81%E3%83%AB%E3%82%B1%E3%83%88%E3%83%B3%E3%83%9A%E3%83%AB%E3%82%AA%E3%82%AD%E3%82%B7%E3%83%89","//no.wikipedia.org/wiki/Metyletylketonperoksid","//pt.wikipedia.org/wiki/Per%C3%B3xido_de_metiletil_cetona","//sv.wikipedia.org/wiki/Metyletylketonperoxid","//zh.wikipedia.org/wiki/%E8%BF%87%E6%B0%A7%E5%8C%96%E4%B8%81%E9%85%AE","//www.wikidata.org/wiki/Special:ItemByTitle/enwiki/Methyl ethyl ketone peroxide","//en.wikipedia.org/wiki/Wikipedia:Text_of_Creative_Commons_Attribution-ShareAlike_3.0_Unported_License","//creativecommons.org/licenses/by-sa/3.0/","//wikimediafoundation.org/wiki/Terms_of_Use","//www.wikimediafoundation.org/","//en.wikipedia.org/wiki/Wikipedia:Contact_us","//wikimediafoundation.org/wiki/Privacy_policy","/wiki/Wikipedia:About","/wiki/Wikipedia:General_disclaimer","http://en.m.wikipedia.org/wiki/Methyl_ethyl_ketone_peroxide","//wikimediafoundation.org/","//bits.wikimedia.org/images/wikimedia-button.png","//www.mediawiki.org/","//bits.wikimedia.org/static-1.21wmf11/skins/common/images/poweredby_mediawiki_88x31.png","//bits.wikimedia.org/en.wikipedia.org/load.php?debug=false&lang=en&modules=skins.vector&only=scripts&skin=vector&*","/w/index.php?title=MediaWiki:Gadget-ReferenceTooltips.js&action=raw&ctype=text/javascript&508635914","//bits.wikimedia.org/en.wikipedia.org/load.php?debug=false&lang=en&modules=site&only=scripts&skin=vector&*"],"instances":[],"pdf":[],"categories":["Liquid explosives","Ketals","Organic peroxides","Radical initiators"],"headings":["Notes","See also","External links"],"image":["//upload.wikimedia.org/wikipedia/commons/thumb/9/99/MEK_peroxide_linear_dimer.png/200px-MEK_peroxide_linear_dimer.png","//upload.wikimedia.org/wikipedia/en/thumb/f/fb/Yes_check.svg/7px-Yes_check.svg.png","//upload.wikimedia.org/wikipedia/en/thumb/f/fb/Yes_check.svg/7px-Yes_check.svg.png","//upload.wikimedia.org/wikipedia/commons/thumb/a/a2/X_mark.svg/7px-X_mark.svg.png","//upload.wikimedia.org/wikipedia/commons/thumb/a/a2/X_mark.svg/7px-X_mark.svg.png","//upload.wikimedia.org/wikipedia/commons/thumb/a/a2/X_mark.svg/14px-X_mark.svg.png","//upload.wikimedia.org/wikipedia/en/thumb/f/fb/Yes_check.svg/10px-Yes_check.svg.png","//upload.wikimedia.org/wikipedia/commons/thumb/a/a2/X_mark.svg/10px-X_mark.svg.png","//bits.wikimedia.org/static-1.21wmf11/skins/vector/images/search-ltr.png?303-4","//bits.wikimedia.org/images/wikimedia-button.png","//bits.wikimedia.org/static-1.21wmf11/skins/common/images/poweredby_mediawiki_88x31.png"],"tags":[],"members":[],"related":["Organic_peroxide","Acetone_peroxide","Standard_conditions_for_temperature_and_pressure","Methyl_ethyl_ketone","Hydrogen_peroxide","Solution","Catalyst","Crosslinking","Unsaturated_polyester_resin","Glass-reinforced_plastic","Dimethyl_phthalate","Cyclohexane_peroxide","Diallyl_phthalate","Benzoyl_peroxide","Hexamethylene_triperoxide_diamine","2006_transatlantic_aircraft_plot","Methyl_ethyl_ketone","Acetone_Peroxide"]}