{"cursor":"2800","size":14,"audio":[],"currentlang":"en","article":"{{chembox\n| verifiedrevid = 396494241 Name = Methacrylic acid ImageFileL1 =\n| Methacrylic_acid.svg ImageFileR1 = Methacrylic-acid-3D-balls-B.png ImageSizeL1\n| = 110px ImageSizeR1 = 120px IUPACName = 2-methylpropenoic acid OtherNames =\n| MAA, 2-methyl-2-propenoic acid Section1 = {{Chembox Identifiers CASNo_Ref =\n| CASNo = 79-41-4 SMILES = CC(C(O)=O)=C\n  }}\n| Section2 = {{Chembox Properties Formula =\n| C 4H 6O 2 MolarMass = 86.06 g/mol Density =\n| 1.015 g/cm 3 MeltingPt = 14 - 15 °C BoilingPt = 161 °C\n  }}\n| Section7 = {{Chembox Hazards NFPA-H = 3 NFPA-R = 2 NFPA-F = 2\n  }} }}\n\n'Methacrylic acid', abbreviated MAA, is an organic compound. This colourless,\nviscous liquid is a carboxylic acid with an acrid unpleasant odor. It is soluble\nin warm water and miscible with most organic solvents. Methacrylic acid is\nproduced industrially on a large scale as a precursor to its esters, especially\nmethyl methacrylate (MMA) and poly(methyl methacrylate) (PMMA). The\nmethacrylates have numerous uses, most notably in the manufacture of polymers\nwith trade names such as Lucite and Plexiglas. MAA occurs naturally in small\namounts in the oil of Roman chamomile.\n","linknr":144,"url":"Methacrylic_acid","recorded":1374780239,"links":["/w/index.php?title=Methacrylic_acid&action=edit","/w/index.php?title=Methacrylic_acid&action=edit","//bits.wikimedia.org/favicon/wikipedia.ico","/w/opensearch_desc.php","//en.wikipedia.org/w/api.php?action=rsd","//creativecommons.org/licenses/by-sa/3.0/","/w/index.php?title=Special:RecentChanges&feed=atom","//bits.wikimedia.org/en.wikipedia.org/load.php?debug=false&lang=en&modules=ext.gadget.DRN-wizard%2CReferenceTooltips%2Ccharinsert%2Cteahouse%7Cext.rtlcite%2Cwikihiero%7Cext.uls.nojs%7Cmediawiki.legacy.commonPrint%2Cshared%7Cmw.PopUpMediaTransform%7Cskins.vector&only=styles&skin=vector&*","//bits.wikimedia.org/en.wikipedia.org/load.php?debug=false&lang=en&modules=site&only=styles&skin=vector&*","//bits.wikimedia.org/en.wikipedia.org/load.php?debug=false&lang=en&modules=startup&only=scripts&skin=vector&*","//bits.wikimedia.org/geoiplookup","//meta.wikimedia.org","#mw-navigation","#p-search","/wiki/File:Methacrylic_acid.svg","//upload.wikimedia.org/wikipedia/commons/thumb/c/cc/Methacrylic_acid.svg/110px-Methacrylic_acid.svg.png","/wiki/File:Methacrylic-acid-3D-balls-B.png","//upload.wikimedia.org/wikipedia/commons/thumb/1/12/Methacrylic-acid-3D-balls-B.png/120px-Methacrylic-acid-3D-balls-B.png","/wiki/International_Union_of_Pure_and_Applied_Chemistry_nomenclature","/wiki/CAS_registry_number","http://www.commonchemistry.org/ChemicalDetail.aspx?ref=79-41-4","//upload.wikimedia.org/wikipedia/en/thumb/f/fb/Yes_check.svg/7px-Yes_check.svg.png","/wiki/Jmol","http://chemapps.stolaf.edu/jmol/jmol.php?model=CC%28C%28O%29%3DO%29%3DC","/wiki/Simplified_molecular-input_line-entry_system","/wiki/Chemical_formula","/wiki/Molar_mass","/wiki/Density","/wiki/Melting_point","/wiki/Boiling_point","/wiki/NFPA_704","/wiki/File:NFPA_704.svg","//upload.wikimedia.org/wikipedia/commons/thumb/6/6f/NFPA_704.svg/75px-NFPA_704.svg.png","//upload.wikimedia.org/wikipedia/en/thumb/f/fb/Yes_check.svg/14px-Yes_check.svg.png","//en.wikipedia.org/w/index.php?title=Special:ComparePages&rev1=396494241&page2=Methacrylic+acid","/wiki/Wikipedia:WikiProject_Chemicals/Chembox_validation","//upload.wikimedia.org/wikipedia/en/thumb/f/fb/Yes_check.svg/10px-Yes_check.svg.png","//upload.wikimedia.org/wikipedia/commons/thumb/a/a2/X_mark.svg/10px-X_mark.svg.png","/wiki/Standard_state","/wiki/Wikipedia:Chemical_infobox#References","/wiki/Organic_compound","/wiki/Carboxylic_acid","/wiki/Ester","/wiki/Methyl_methacrylate","/wiki/Poly(methyl_methacrylate)","/wiki/Roman_chamomile","/w/index.php?title=Methacrylic_acid&action=edit&section=1","/wiki/Acetone_cyanohydrin","/wiki/Isobutylene","/wiki/Tert-butanol","/wiki/Methacrolein","/wiki/Formaldehyde","/wiki/Ethylene","/wiki/Isobutyric_acid","#cite_note-1","/wiki/Phosphorus_pentachloride","#cite_note-2","/wiki/Alkali","/wiki/Propanoic_acid","/wiki/Sodium_amalgam","/wiki/Isobutyric_acid","/wiki/Polymer","#cite_note-3","/w/index.php?title=Methacrylic_acid&action=edit&section=2","#cite_ref-1","/wiki/Digital_object_identifier","http://dx.doi.org/10.1002%2F14356007.a16_441","#cite_ref-2","/wiki/Edward_Frankland","#cite_ref-3","//en.wikipedia.org/w/index.php?title=Special:CentralAutoLogin/start&type=1x1&from=enwiki","http://en.wikipedia.org/w/index.php?title=Methacrylic_acid&oldid=544280874","/wiki/Help:Categories","/wiki/Category:Carboxylic_acids","/wiki/Category:Monomers","/wiki/Category:Alkenes","/wiki/Category:Chemical_pages_needing_a_ChemSpiderID","/w/index.php?title=Special:UserLogin&returnto=Methacrylic+acid&type=signup","/w/index.php?title=Special:UserLogin&returnto=Methacrylic+acid","/wiki/Methacrylic_acid","/wiki/Talk:Methacrylic_acid","#","/wiki/Methacrylic_acid","/w/index.php?title=Methacrylic_acid&action=edit","/w/index.php?title=Methacrylic_acid&action=history","#","/w/index.php","//bits.wikimedia.org/static-1.22wmf10/skins/vector/images/search-ltr.png?303-4","/wiki/Main_Page","/wiki/Main_Page","/wiki/Portal:Contents","/wiki/Portal:Featured_content","/wiki/Portal:Current_events","/wiki/Special:Random","//donate.wikimedia.org/wiki/Special:FundraiserRedirector?utm_source=donate&utm_medium=sidebar&utm_campaign=C13_en.wikipedia.org&uselang=en","/wiki/Help:Contents","/wiki/Wikipedia:About","/wiki/Wikipedia:Community_portal","/wiki/Special:RecentChanges","//en.wikipedia.org/wiki/Wikipedia:Contact_us","/wiki/Special:WhatLinksHere/Methacrylic_acid","/wiki/Special:RecentChangesLinked/Methacrylic_acid","/wiki/Wikipedia:File_Upload_Wizard","/wiki/Special:SpecialPages","/w/index.php?title=Methacrylic_acid&oldid=544280874","/w/index.php?title=Methacrylic_acid&action=info","//www.wikidata.org/wiki/Q165949","/w/index.php?title=Special:Cite&page=Methacrylic_acid&id=544280874","/w/index.php?title=Special:Book&bookcmd=book_creator&referer=Methacrylic+acid","/w/index.php?title=Special:Book&bookcmd=render_article&arttitle=Methacrylic+acid&oldid=544280874&writer=rl","/w/index.php?title=Methacrylic_acid&printable=yes","//az.wikipedia.org/wiki/Metakrilat_tur%C5%9Fusu","//ca.wikipedia.org/wiki/%C3%80cid_metacr%C3%ADlic","//de.wikipedia.org/wiki/Methacryls%C3%A4ure","//es.wikipedia.org/wiki/%C3%81cido_metacr%C3%ADlico","//eu.wikipedia.org/wiki/Azido_metakriliko","//fa.wikipedia.org/wiki/%D9%85%D8%AA%D8%A7%DA%A9%D8%B1%DB%8C%D9%84%DB%8C%DA%A9_%D8%A7%D8%B3%DB%8C%D8%AF","//fr.wikipedia.org/wiki/Acide_m%C3%A9thacrylique","//it.wikipedia.org/wiki/Acido_metacrilico","//hu.wikipedia.org/wiki/Metakrilsav","//nl.wikipedia.org/wiki/Methacrylzuur","//ja.wikipedia.org/wiki/%E3%83%A1%E3%82%BF%E3%82%AF%E3%83%AA%E3%83%AB%E9%85%B8","//pt.wikipedia.org/wiki/%C3%81cido_metacr%C3%ADlico","//ru.wikipedia.org/wiki/%D0%9C%D0%B5%D1%82%D0%B0%D0%BA%D1%80%D0%B8%D0%BB%D0%BE%D0%B2%D0%B0%D1%8F_%D0%BA%D0%B8%D1%81%D0%BB%D0%BE%D1%82%D0%B0","//sl.wikipedia.org/wiki/Metakrilna_kislina","//fi.wikipedia.org/wiki/Metakryylihappo","//sv.wikipedia.org/wiki/Metakrylsyra","//zh.wikipedia.org/wiki/%E7%94%B2%E5%9F%BA%E4%B8%99%E7%83%AF%E9%85%B8","#","//www.wikidata.org/wiki/Q165949#sitelinks-wikipedia","//en.wikipedia.org/wiki/Wikipedia:Text_of_Creative_Commons_Attribution-ShareAlike_3.0_Unported_License","//creativecommons.org/licenses/by-sa/3.0/","//wikimediafoundation.org/wiki/Terms_of_Use","//wikimediafoundation.org/wiki/Privacy_policy","//www.wikimediafoundation.org/","//wikimediafoundation.org/wiki/Privacy_policy","/wiki/Wikipedia:About","/wiki/Wikipedia:General_disclaimer","//en.wikipedia.org/wiki/Wikipedia:Contact_us","//en.m.wikipedia.org/wiki/Methacrylic_acid","//wikimediafoundation.org/","//bits.wikimedia.org/images/wikimedia-button.png","//www.mediawiki.org/","//bits.wikimedia.org/static-1.22wmf10/skins/common/images/poweredby_mediawiki_88x31.png","//bits.wikimedia.org/en.wikipedia.org/load.php?debug=false&lang=en&modules=site&only=scripts&skin=vector&*"],"instances":[],"pdf":[],"categories":["Carboxylic acids","Monomers","Alkenes"],"headings":["Production and properties","References"],"image":["//upload.wikimedia.org/wikipedia/commons/thumb/c/cc/Methacrylic_acid.svg/110px-Methacrylic_acid.svg.png","//upload.wikimedia.org/wikipedia/commons/thumb/1/12/Methacrylic-acid-3D-balls-B.png/120px-Methacrylic-acid-3D-balls-B.png","//upload.wikimedia.org/wikipedia/en/thumb/f/fb/Yes_check.svg/7px-Yes_check.svg.png","//upload.wikimedia.org/wikipedia/commons/thumb/6/6f/NFPA_704.svg/75px-NFPA_704.svg.png","//upload.wikimedia.org/wikipedia/en/thumb/f/fb/Yes_check.svg/14px-Yes_check.svg.png","//upload.wikimedia.org/wikipedia/en/thumb/f/fb/Yes_check.svg/10px-Yes_check.svg.png","//upload.wikimedia.org/wikipedia/commons/thumb/a/a2/X_mark.svg/10px-X_mark.svg.png","//en.wikipedia.org/w/index.php?title=Special:CentralAutoLogin/start&type=1x1&from=enwiki","//bits.wikimedia.org/static-1.22wmf10/skins/vector/images/search-ltr.png?303-4","//bits.wikimedia.org/images/wikimedia-button.png","//bits.wikimedia.org/static-1.22wmf10/skins/common/images/poweredby_mediawiki_88x31.png"],"tags":[["poly(methyl_methacrylate"]],"members":[],"related":["Organic_compound","Carboxylic_acid","Ester","Methyl_methacrylate","Poly(methyl_methacrylate)","Roman_chamomile","Acetone_cyanohydrin","Isobutylene","Tert-butanol","Methacrolein","Formaldehyde","Ethylene","Isobutyric_acid","Phosphorus_pentachloride","Edward_Frankland","Alkali","Propanoic_acid","Sodium_amalgam","Isobutyric_acid","Polymer"]}