{"cursor":"7139","size":15,"audio":[],"currentlang":"en","article":"{{chembox\n| verifiedrevid = 470471892 Name = Succinic acid ImageFile_Ref = ImageFile =\n| Bernsteinsäure2.svg ImageFile1 = Succinic-acid-3D-balls.png ImageFile2 =\n| Sample of succinic acid.jpg ImageSize2 = 200px IUPACName = Butanedioic acid\n| OtherNames = ethane-1,2-dicarboxylic acid Section1 = {{Chembox Identifiers\n| PubChem = 1110 UNII_Ref = UNII = AB6MNQ6J6L InChI = 1/C4H6O4/c5-3(6)1-2-4(7)8/h1-\n| 2H2,(H,5,6)(H,7,8) InChIKey = KDYFGRWQOYBRFD-UHFFFAOYAC ChEMBL_Ref = ChEMBL =\n| 576 StdInChI_Ref = StdInChI = 1S/C4H6O4/c5-3(6)1-2-4(7)8/h1-2H2,(H,5,6)(H,7,8)\n| StdInChIKey_Ref = StdInChIKey = KDYFGRWQOYBRFD-UHFFFAOYSA-N CASNo_Ref = CASNo\n| = 110-15-6 ChemSpiderID_Ref = ChemSpiderID = 1078 DrugBank_Ref = DrugBank =\n| DB00139 ChEBI_Ref = ChEBI = 15741 SMILES = C(CC(=O)O)C(=O)O\n}}\n| Section2 = {{Chembox Properties C = 4 H = 6 O = 4 Density = 1.56\n| g/cm 3 MeltingPtC = 184 Melting_notes =  BoilingPtC = 235 Boiling_notes = \n| Solubility = 58 g/L (20 °C) pKa = pK a1 = 4.2 pK a2 = 5.6\n  }}\n| Section3 = {{Chembox Hazards MainHazards = FlashPt = \n| Autoignition = }} Section4 = {{Chembox Related OtherAnions = sodium succinate\n| Function = carboxylic acids OtherFunctn = propionic acid malonic acid butyric acid malic acid tartaric acid fumaric acid valeric acid glutaric acid\n  }} }}\n\n'Succinic acid' (; IUPAC systematic name: 'butanedioic acid;'historically known\nas 'spirit of amber') is a dicarboxylic acid, and is therefore also a diprotic\nacid. Succinic acid is a white, odorless solid. Succinate plays a role in the\ncitric acid cycle, an energy-yielding process. The name derives from Latin\nsuccinum, meaning amber, from which the acid may be obtained.\n","linknr":523,"url":"Sodium_succinate","recorded":1363377012,"links":["/w/index.php?title=Succinic_acid&action=edit","/w/index.php?title=Succinic_acid&action=edit","//en.wikipedia.org/apple-touch-icon.png","//bits.wikimedia.org/favicon/wikipedia.ico","/w/opensearch_desc.php","//en.wikipedia.org/w/api.php?action=rsd","//creativecommons.org/licenses/by-sa/3.0/","/w/index.php?title=Special:RecentChanges&feed=atom","/wiki/Succinic_acid","//bits.wikimedia.org/en.wikipedia.org/load.php?debug=false&lang=en&modules=ext.gadget.DRN-wizard%2CReferenceTooltips%2Ccharinsert%2Cteahouse%7Cext.wikihiero%7Cmediawiki.legacy.commonPrint%2Cshared%7Cmw.PopUpMediaTransform%7Cskins.vector&only=styles&skin=vector&*","//bits.wikimedia.org/en.wikipedia.org/load.php?debug=false&lang=en&modules=site&only=styles&skin=vector&*","//bits.wikimedia.org/en.wikipedia.org/load.php?debug=false&lang=en&modules=startup&only=scripts&skin=vector&*","//bits.wikimedia.org/geoiplookup","//meta.wikimedia.org","/w/index.php?title=Sodium_succinate&redirect=no","#mw-head","#p-search","/wiki/File:Bernsteins%C3%A4ure2.svg","//upload.wikimedia.org/wikipedia/commons/thumb/9/9f/Bernsteins%C3%A4ure2.svg/200px-Bernsteins%C3%A4ure2.svg.png","/wiki/File:Succinic-acid-3D-balls.png","//upload.wikimedia.org/wikipedia/commons/thumb/8/84/Succinic-acid-3D-balls.png/200px-Succinic-acid-3D-balls.png","/wiki/File:Sample_of_succinic_acid.jpg","//upload.wikimedia.org/wikipedia/commons/thumb/7/7d/Sample_of_succinic_acid.jpg/200px-Sample_of_succinic_acid.jpg","/wiki/International_Union_of_Pure_and_Applied_Chemistry_nomenclature","/wiki/CAS_registry_number","http://www.commonchemistry.org/ChemicalDetail.aspx?ref=110-15-6","//upload.wikimedia.org/wikipedia/en/thumb/f/fb/Yes_check.svg/7px-Yes_check.svg.png","/wiki/PubChem","http://pubchem.ncbi.nlm.nih.gov/summary/summary.cgi?cid=1110","/wiki/ChemSpider","http://www.chemspider.com/1078","//upload.wikimedia.org/wikipedia/en/thumb/f/fb/Yes_check.svg/7px-Yes_check.svg.png","/wiki/Unique_Ingredient_Identifier","http://fdasis.nlm.nih.gov/srs/srsdirect.jsp?regno=AB6MNQ6J6L","//upload.wikimedia.org/wikipedia/en/thumb/f/fb/Yes_check.svg/7px-Yes_check.svg.png","/wiki/DrugBank","http://www.drugbank.ca/drugs/DB00139","/wiki/ChEBI","https://www.ebi.ac.uk/chebi/searchId.do?chebiId=15741","//upload.wikimedia.org/wikipedia/en/thumb/f/fb/Yes_check.svg/7px-Yes_check.svg.png","/wiki/ChEMBL","https://www.ebi.ac.uk/chembldb/index.php/compound/inspect/CHEMBL576","//upload.wikimedia.org/wikipedia/en/thumb/f/fb/Yes_check.svg/7px-Yes_check.svg.png","/wiki/Jmol","http://chemapps.stolaf.edu/jmol/jmol.php?model=C%28CC%28%3DO%29O%29C%28%3DO%29O","/wiki/Simplified_molecular-input_line-entry_system","/wiki/International_Chemical_Identifier","//upload.wikimedia.org/wikipedia/en/thumb/f/fb/Yes_check.svg/7px-Yes_check.svg.png","//upload.wikimedia.org/wikipedia/en/thumb/f/fb/Yes_check.svg/7px-Yes_check.svg.png","/wiki/Molecular_formula","/wiki/Molar_mass","/wiki/Density","#cite_note-GESTIS-1","/wiki/Melting_point","#cite_note-GESTIS-1","/wiki/Boiling_point","#cite_note-GESTIS-1","/wiki/Solubility","/wiki/Water","#cite_note-GESTIS-1","/wiki/Acid_dissociation_constant","/wiki/Flash_point","#cite_note-GESTIS-1","/wiki/Ion","/wiki/Sodium_succinate","/wiki/Carboxylic_acid","/wiki/Propionic_acid","/wiki/Malonic_acid","/wiki/Butyric_acid","/wiki/Malic_acid","/wiki/Tartaric_acid","/wiki/Fumaric_acid","/wiki/Valeric_acid","/wiki/Glutaric_acid","//upload.wikimedia.org/wikipedia/en/thumb/f/fb/Yes_check.svg/14px-Yes_check.svg.png","//en.wikipedia.org/w/index.php?title=Special:ComparePages&rev1=470471892&page2=Succinic+acid","/wiki/Wikipedia:WikiProject_Chemicals/Chembox_validation","//upload.wikimedia.org/wikipedia/en/thumb/f/fb/Yes_check.svg/10px-Yes_check.svg.png","//upload.wikimedia.org/wikipedia/commons/thumb/a/a2/X_mark.svg/10px-X_mark.svg.png","/wiki/Standard_state","/wiki/Wikipedia:Chemical_infobox#References","/wiki/Help:IPA_for_English","/wiki/Help:IPA_for_English#Key","/wiki/Help:IPA_for_English#Key","/wiki/Help:IPA_for_English#Key","/wiki/Help:IPA_for_English#Key","/wiki/Help:IPA_for_English#Key","/wiki/Help:IPA_for_English#Key","/wiki/Help:IPA_for_English#Key","/wiki/Help:IPA_for_English#Key","/wiki/Help:IPA_for_English#Key","/wiki/Help:IPA_for_English","/wiki/IUPAC","/wiki/Systematic_name","/wiki/Dicarboxylic_acid","/wiki/Diprotic","/wiki/Solid","/wiki/Citric_acid_cycle","/wiki/Amber","#Production_and_reactions","#Applications","#Biochemistry","#Fermentation","#Succinates","#Safety","#See_also","#References","#External_links","/w/index.php?title=Succinic_acid&action=edit&section=1","/wiki/Amber","/wiki/Sand_bath","/wiki/Rheumatic","/wiki/Gleet","/wiki/Hydrogenation","/wiki/Maleic_acid","/wiki/Carbonylation","/wiki/Ethylene_glycol","#cite_note-2","/wiki/Fumaric_acid","/wiki/Stobbe_condensation","/wiki/Succinic_anhydride","#cite_note-3","/w/index.php?title=Succinic_acid&action=edit&section=2","/wiki/Polyester","/wiki/Alkyd_resin","/wiki/Acidity_regulator","#cite_note-4","#cite_note-5","/wiki/Nutraceutical","/wiki/Food_additive","/wiki/Dietary_supplement","/wiki/U.S._Food_and_Drug_Administration","#cite_note-6","/wiki/Excipient","#cite_note-7","/wiki/Effervescent","#cite_note-8","/w/index.php?title=Succinic_acid&action=edit&section=3","/wiki/Citric_acid_cycle","/wiki/Electron","/wiki/Electron_transport_chain","/wiki/FAD","/wiki/Fumarate","/wiki/FADH2","#cite_note-WikiPathways-9","#Interactive_pathway_map","//upload.wikimedia.org/wikipedia/commons/1/14/TCACycle_WP78.png","http://en.wikipedia.org/wiki/Guanosine_triphosphate","http://en.wikipedia.org/wiki/Guanosine_diphosphate","http://en.wikipedia.org/wiki/Carbon_dioxide","http://en.wikipedia.org/wiki/Water","http://www.hmdb.ca/metabolites/HMDB01487","http://en.wikipedia.org/wiki/Fumarase","http://en.wikipedia.org/wiki/Succinate_dehydrogenase_complex_subunit_C","http://en.wikipedia.org/wiki/Isocitric_acid","http://en.wikipedia.org/wiki/Succinyl-CoA","http://en.wikipedia.org/wiki/Alpha-Ketoglutaric_acid","http://en.wikipedia.org/wiki/Succinyl_coenzyme_A_synthetase","http://en.wikipedia.org/wiki/Citrate_synthase","http://en.wikipedia.org/wiki/Dihydrolipoamide_dehydrogenase","http://en.wikipedia.org/wiki/DLST","http://en.wikipedia.org/wiki/Acetyl-CoA","http://en.wikipedia.org/wiki/IDH3B","http://en.wikipedia.org/wiki/IDH3A","http://en.wikipedia.org/wiki/SUCLG1","http://en.wikipedia.org/wiki/SDHA","http://en.wikipedia.org/wiki/Malate_dehydrogenase_2","http://en.wikipedia.org/wiki/IDH3G","http://en.wikipedia.org/wiki/OGDH","http://en.wikipedia.org/wiki/Malic_acid","http://en.wikipedia.org/wiki/Oxaloacetic_acid","http://en.wikipedia.org/wiki/Fumaric_acid","http://en.wikipedia.org/wiki/SDHD","http://en.wikipedia.org/wiki/Citrate","http://en.wikipedia.org/wiki/Aconitase","http://en.wikipedia.org/wiki/Succinic_acid","http://en.wikipedia.org/wiki/SDHB","http://en.wikipedia.org/wiki/Electron_transport_chain","http://en.wikipedia.org/wiki/Fatty_acid_synthesis","http://en.wikipedia.org/wiki/Beta_oxidation","http://www.hmdb.ca/metabolites/HMDB00072","http://en.wikipedia.org/wiki/Aconitase","http://en.wikipedia.org/wiki/Nicotinamide_adenine_dinucleotide","http://www.hmdb.ca/metabolites/HMDB01487","http://en.wikipedia.org/wiki/IDH2","http://en.wikipedia.org/wiki/Nicotinamide_adenine_dinucleotide_phosphate","http://www.hmdb.ca/metabolites/HMDB00221","http://en.wikipedia.org/wiki/Coenzyme_a","http://en.wikipedia.org/wiki/Nicotinamide_adenine_dinucleotide","http://www.hmdb.ca/metabolites/HMDB01487","http://en.wikipedia.org/wiki/Adenosine_diphosphate","http://en.wikipedia.org/wiki/Adenosine_triphosphate","http://en.wikipedia.org/wiki/Coenzyme_a","http://en.wikipedia.org/wiki/Coenzyme_Q10","http://en.wikipedia.org/wiki/Ubiquinol","http://en.wikipedia.org/wiki/Water","http://en.wikipedia.org/wiki/Nicotinamide_adenine_dinucleotide","http://en.wikipedia.org/wiki/Water","http://en.wikipedia.org/wiki/Coenzyme_a","http://www.wikipathways.org/index.php/Pathway:WP534","http://www.wikipathways.org/index.php/Pathway:WP1847","http://en.wikipedia.org/wiki/Carbon_dioxide","http://en.wikipedia.org/wiki/Carbon_dioxide","http://en.wikipedia.org/wiki/Phosphate","http://en.wikipedia.org/wiki/Water","#Interactive_pathway_map","//upload.wikimedia.org/wikipedia/commons/1/14/TCACycle_WP78.png","http://en.wikipedia.org/wiki/Guanosine_triphosphate","http://en.wikipedia.org/wiki/Guanosine_diphosphate","http://en.wikipedia.org/wiki/Carbon_dioxide","http://en.wikipedia.org/wiki/Water","http://www.hmdb.ca/metabolites/HMDB01487","http://en.wikipedia.org/wiki/Fumarase","http://en.wikipedia.org/wiki/Succinate_dehydrogenase_complex_subunit_C","http://en.wikipedia.org/wiki/Isocitric_acid","http://en.wikipedia.org/wiki/Succinyl-CoA","http://en.wikipedia.org/wiki/Alpha-Ketoglutaric_acid","http://en.wikipedia.org/wiki/Succinyl_coenzyme_A_synthetase","http://en.wikipedia.org/wiki/Citrate_synthase","http://en.wikipedia.org/wiki/Dihydrolipoamide_dehydrogenase","http://en.wikipedia.org/wiki/DLST","http://en.wikipedia.org/wiki/Acetyl-CoA","http://en.wikipedia.org/wiki/IDH3B","http://en.wikipedia.org/wiki/IDH3A","http://en.wikipedia.org/wiki/SUCLG1","http://en.wikipedia.org/wiki/SDHA","http://en.wikipedia.org/wiki/Malate_dehydrogenase_2","http://en.wikipedia.org/wiki/IDH3G","http://en.wikipedia.org/wiki/OGDH","http://en.wikipedia.org/wiki/Malic_acid","http://en.wikipedia.org/wiki/Oxaloacetic_acid","http://en.wikipedia.org/wiki/Fumaric_acid","http://en.wikipedia.org/wiki/SDHD","http://en.wikipedia.org/wiki/Citrate","http://en.wikipedia.org/wiki/Aconitase","http://en.wikipedia.org/wiki/Succinic_acid","http://en.wikipedia.org/wiki/SDHB","http://en.wikipedia.org/wiki/Electron_transport_chain","http://en.wikipedia.org/wiki/Fatty_acid_synthesis","http://en.wikipedia.org/wiki/Beta_oxidation","http://www.hmdb.ca/metabolites/HMDB00072","http://en.wikipedia.org/wiki/Aconitase","http://en.wikipedia.org/wiki/Nicotinamide_adenine_dinucleotide","http://www.hmdb.ca/metabolites/HMDB01487","http://en.wikipedia.org/wiki/IDH2","http://en.wikipedia.org/wiki/Nicotinamide_adenine_dinucleotide_phosphate","http://www.hmdb.ca/metabolites/HMDB00221","http://en.wikipedia.org/wiki/Coenzyme_a","http://en.wikipedia.org/wiki/Nicotinamide_adenine_dinucleotide","http://www.hmdb.ca/metabolites/HMDB01487","http://en.wikipedia.org/wiki/Adenosine_diphosphate","http://en.wikipedia.org/wiki/Adenosine_triphosphate","http://en.wikipedia.org/wiki/Coenzyme_a","http://en.wikipedia.org/wiki/Coenzyme_Q10","http://en.wikipedia.org/wiki/Ubiquinol","http://en.wikipedia.org/wiki/Water","http://en.wikipedia.org/wiki/Nicotinamide_adenine_dinucleotide","http://en.wikipedia.org/wiki/Water","http://en.wikipedia.org/wiki/Coenzyme_a","http://www.wikipathways.org/index.php/Pathway:WP534","http://www.wikipathways.org/index.php/Pathway:WP1847","http://en.wikipedia.org/wiki/Carbon_dioxide","http://en.wikipedia.org/wiki/Carbon_dioxide","http://en.wikipedia.org/wiki/Phosphate","http://en.wikipedia.org/wiki/Water","/wiki/File:Magnify-clip.png","//upload.wikimedia.org/wikipedia/commons/6/6b/Magnify-clip.png","http://www.wikipathways.org/index.php/Pathway:WP78","/wiki/Succinate_dehydrogenase","/w/index.php?title=Succinic_acid&action=edit&section=4","/wiki/Acids_in_wine","#cite_note-10","/w/index.php?title=Succinic_acid&action=edit&section=5","/wiki/Ester","/w/index.php?title=Succinic_acid&action=edit&section=6","#cite_note-11","/w/index.php?title=Succinic_acid&action=edit&section=7","/wiki/Oil_of_amber","/w/index.php?title=Succinic_acid&action=edit&section=8","#cite_ref-GESTIS_1-0","#cite_ref-GESTIS_1-1","#cite_ref-GESTIS_1-2","#cite_ref-GESTIS_1-3","#cite_ref-GESTIS_1-4","http://gestis-en.itrust.de/nxt/gateway.dll?f=id$t=default.htm$vid=gestiseng:sdbeng$id=037700","/wiki/Institute_for_Occupational_Safety_and_Health","#cite_ref-2","/wiki/Digital_object_identifier","http://dx.doi.org/10.1002%2F14356007.a08_523","#cite_ref-3","/wiki/Louis_F._Fieser","http://www.orgsyn.org/orgsyn/orgsyn/prepContent.asp?prep=CV2P0560","/wiki/Organic_Syntheses","http://www.orgsyn.org/orgsyn/orgsyn/prepContent.asp?prep=CV2P0560","#cite_ref-4","/wiki/Digital_object_identifier","http://dx.doi.org/10.1007%2Fs002530051431","#cite_ref-5","http://www.nnfcc.co.uk/publications/nnfcc-renewable-chemicals-factsheet-succinic-acid","#cite_ref-6","http://www.accessdata.fda.gov/scripts/cder/iig/index.cfm","#cite_ref-7","http://drugtopics.modernmedicine.com/drugtopics/Drugtopics.com+Exclusives/Overview-of-pharmaceutical-excipients-used-in-tabl/ArticleStandard/Article/detail/561047","#cite_ref-8","/wiki/International_Standard_Book_Number","/wiki/Special:BookSources/0-8247-8044-2,_9780824780449","#cite_ref-WikiPathways_9-0","http://www.wikipathways.org/index.php/Pathway:WP78","http://www.wikipathways.org/index.php/Pathway:WP78","#cite_ref-10","#cite_ref-11","http://bio-amber.com/ignitionweb/data/media_centre_files/661/MSDS_SUCCINIC_ACID_USA_ENGLISH_VERSION.pdf","/wiki/File:PD-icon.svg","//upload.wikimedia.org/wikipedia/en/thumb/6/62/PD-icon.svg/12px-PD-icon.svg.png","/wiki/Public_domain","/wiki/Ephraim_Chambers","/wiki/Cyclopaedia,_or_an_Universal_Dictionary_of_Arts_and_Sciences","/w/index.php?title=Succinic_acid&action=edit&section=9","http://physchem.ox.ac.uk/MSDS/SU/succinic_acid.html","http://www.cfsan.fda.gov/~dms/eafus.html","http://chemicalland21.com/industrialchem/organic/SUCCINIC%20ACID.htm","http://www.aim.env.uea.ac.uk/aim/accent2/inputpage.php","/wiki/Template:Citric_acid_cycle","/wiki/Template_talk:Citric_acid_cycle","//en.wikipedia.org/w/index.php?title=Template:Citric_acid_cycle&action=edit","/wiki/Citric_acid_cycle","/wiki/Metabolic_pathway","/wiki/Oxaloacetic_acid","/wiki/Malic_acid","/wiki/Fumaric_acid","/wiki/Succinyl-CoA","/wiki/File:Oxaloacetate_wpmp.png","//upload.wikimedia.org/wikipedia/commons/thumb/c/c8/Oxaloacetate_wpmp.png/24px-Oxaloacetate_wpmp.png","/wiki/File:S-malate_wpmp.png","//upload.wikimedia.org/wikipedia/commons/thumb/e/e3/S-malate_wpmp.png/27px-S-malate_wpmp.png","/wiki/File:Fumarate_wpmp.png","//upload.wikimedia.org/wikipedia/commons/thumb/7/70/Fumarate_wpmp.png/24px-Fumarate_wpmp.png","/wiki/File:Succinate_wpmp.png","//upload.wikimedia.org/wikipedia/commons/thumb/5/5a/Succinate_wpmp.png/24px-Succinate_wpmp.png","/wiki/File:Succinyl-CoA_wpmp.png","//upload.wikimedia.org/wikipedia/commons/thumb/d/db/Succinyl-CoA_wpmp.png/24px-Succinyl-CoA_wpmp.png","/wiki/File:Biochem_reaction_arrow_reverse_NNYY_horiz_med.png","//upload.wikimedia.org/wikipedia/commons/thumb/5/56/Biochem_reaction_arrow_reverse_NNYY_horiz_med.png/35px-Biochem_reaction_arrow_reverse_NNYY_horiz_med.png","/wiki/File:Biochem_reaction_arrow_reverse_NNYN_horiz_med.png","//upload.wikimedia.org/wikipedia/commons/thumb/d/d5/Biochem_reaction_arrow_reverse_NNYN_horiz_med.png/35px-Biochem_reaction_arrow_reverse_NNYN_horiz_med.png","/wiki/File:Biochem_reaction_arrow_reverse_NNYY_horiz_med.png","//upload.wikimedia.org/wikipedia/commons/thumb/5/56/Biochem_reaction_arrow_reverse_NNYY_horiz_med.png/35px-Biochem_reaction_arrow_reverse_NNYY_horiz_med.png","/wiki/File:Biochem_reaction_arrow_reverse_NNYY_horiz_med.png","//upload.wikimedia.org/wikipedia/commons/thumb/5/56/Biochem_reaction_arrow_reverse_NNYY_horiz_med.png/35px-Biochem_reaction_arrow_reverse_NNYY_horiz_med.png","/wiki/Acetyl-CoA","/wiki/File:Acetyl_co-A_wpmp.png","//upload.wikimedia.org/wikipedia/commons/thumb/e/ed/Acetyl_co-A_wpmp.png/31px-Acetyl_co-A_wpmp.png","/wiki/File:Biochem_reaction_arrow_special_1.png","//upload.wikimedia.org/wikipedia/commons/thumb/c/cc/Biochem_reaction_arrow_special_1.png/35px-Biochem_reaction_arrow_special_1.png","/wiki/File:Biochem_reaction_arrow_special_2.png","//upload.wikimedia.org/wikipedia/commons/thumb/4/43/Biochem_reaction_arrow_special_2.png/35px-Biochem_reaction_arrow_special_2.png","/wiki/Coenzyme_A","/wiki/File:Citrate_wpmp.png","//upload.wikimedia.org/wikipedia/commons/thumb/2/22/Citrate_wpmp.png/31px-Citrate_wpmp.png","/wiki/File:Cis-Aconitate_wpmp.png","//upload.wikimedia.org/wikipedia/commons/thumb/e/eb/Cis-Aconitate_wpmp.png/27px-Cis-Aconitate_wpmp.png","/wiki/File:Threo-Ds-isocitrate_wpmp.png","//upload.wikimedia.org/wikipedia/commons/thumb/3/3a/Threo-Ds-isocitrate_wpmp.png/35px-Threo-Ds-isocitrate_wpmp.png","/wiki/File:Oxalosuccinate_wpmp.png","//upload.wikimedia.org/wikipedia/commons/thumb/1/19/Oxalosuccinate_wpmp.png/31px-Oxalosuccinate_wpmp.png","/wiki/File:2-oxoglutarate_wpmp.svg","//upload.wikimedia.org/wikipedia/commons/thumb/d/d9/2-oxoglutarate_wpmp.svg/24px-2-oxoglutarate_wpmp.svg.png","/wiki/File:Biochem_reaction_arrow_foward_NYNN_horiz_med.png","//upload.wikimedia.org/wikipedia/commons/thumb/e/e9/Biochem_reaction_arrow_foward_NYNN_horiz_med.png/35px-Biochem_reaction_arrow_foward_NYNN_horiz_med.png","/wiki/File:Biochem_reaction_arrow_foward_YNNN_horiz_med.png","//upload.wikimedia.org/wikipedia/commons/thumb/7/71/Biochem_reaction_arrow_foward_YNNN_horiz_med.png/35px-Biochem_reaction_arrow_foward_YNNN_horiz_med.png","/wiki/File:Biochem_reaction_arrow_foward_YYNN_horiz_med.png","//upload.wikimedia.org/wikipedia/commons/thumb/9/90/Biochem_reaction_arrow_foward_YYNN_horiz_med.png/35px-Biochem_reaction_arrow_foward_YYNN_horiz_med.png","/wiki/File:Biochem_reaction_arrow_foward_NYNN_horiz_med.png","//upload.wikimedia.org/wikipedia/commons/thumb/e/e9/Biochem_reaction_arrow_foward_NYNN_horiz_med.png/35px-Biochem_reaction_arrow_foward_NYNN_horiz_med.png","/wiki/Citrate","/wiki/Aconitic_acid","/wiki/Isocitric_acid","/wiki/Oxalosuccinic_acid","/wiki/Alpha-Ketoglutaric_acid","/wiki/Template:Medicine_navs","/wiki/Inborn_error_of_metabolism","/wiki/Template:Metabolism","/wiki/Template:Citric_acid_cycle_enzymes_and_ETC","/wiki/Template:Glycolysis_enzymes","/wiki/Template:Glycogenesis_and_glycogenolysis_enzymes","/wiki/Template:Fructose_and_galactose_metabolism_enzymes","/wiki/Template:Pentose_phosphate_pathway_enzymes","/wiki/Template:Glycoprotein_metabolism_enzymes","/wiki/Template:Proteoglycan_metabolism_enzymes","/wiki/Template:Lipid_metabolism_enzymes","/wiki/Template:Phospholipid_metabolism","/wiki/Template:Cholesterol_and_steroid_metabolism_enzymes","/wiki/Template:Lipoprotein_metabolism","/wiki/Template:Glycolipid/sphingolipid_metabolism_enzymes","/wiki/Template:Eicosanoid_metabolism_enzymes","/wiki/Template:Amino_acid_metabolism_enzymes","/wiki/Template:Urea_cycle_enzymes","/wiki/Template:Nucleotide_metabolism_enzymes","/wiki/Template:Porphyrin_metabolism_enzymes","/wiki/Template:Disorders_of_TCA_and_ETC","/wiki/Template:Inborn_errors_of_carbohydrate_metabolism","/wiki/Template:Glycoprotein_disorders","/wiki/Template:Proteoglycan_disorders","/wiki/Template:Fatty-acid_metabolism_disorders","/wiki/Template:Phospholipid_metabolism_disorders","/wiki/Template:Defects_of_cholesterol_and_steroid_metabolism","/wiki/Template:Lipid_metabolism_disorders","/wiki/Template:Lipid_storage_disorders","/wiki/Template:Eicosanoid_metabolism_disorders","/wiki/Template:Amino_acid_metabolic_pathology","/wiki/Template:Inborn_errors_of_purine-pyrimidine_metabolism","/wiki/Template:Heme_metabolism_disorders","/wiki/Template:Eponymous_medical_signs_for_endocrinology,_nutrition,_and_metabolism","/wiki/ATC_code_A16","/wiki/Template:Lipid_modifying_agents","/wiki/Template:Citric_acid_cycle","/wiki/Template:Glycolysis","/wiki/Template:Glycogenesis_and_glycogenolysis_metabolic_intermediates","/wiki/Template:Fructose_and_galactose_metabolic_intermediates","/wiki/Template:Pentose_phosphate_pathway_intermediates","/wiki/Template:Glycoproteins","/wiki/Template:Glycosaminoglycans","/wiki/Template:Fatty-acid_metabolism_intermediates","/wiki/Template:Phospholipids","/wiki/Template:Cholesterol_and_steroid_intermediates","/wiki/Template:Sphingolipids","/wiki/Template:Eicosanoids","/wiki/Template:Amino_acid_metabolism_intermediates","/wiki/Template:Urea_cycle","/wiki/Template:Nucleotide_metabolism_intermediates","/wiki/Template:Heme_metabolism_intermediates","http://en.wikipedia.org/w/index.php?title=Succinic_acid&oldid=539550081","/wiki/Help:Categories","/wiki/Category:Citric_acid_cycle","/wiki/Category:Citric_acid_cycle_compounds","/wiki/Category:Dicarboxylic_acids","/wiki/Category:Excipients","/wiki/Category:Succinates","/wiki/Category:Wikipedia_articles_incorporating_a_citation_from_the_1728_Cyclopaedia","/wiki/Category:Wikipedia_articles_incorporating_text_from_Cyclopaedia","/wiki/Category:Wikipedia_articles_incorporating_a_citation_from_the_1728_Cyclopaedia_without_an_article_title_parameter","/w/index.php?title=Special:UserLogin&returnto=Succinic+acid&type=signup","/w/index.php?title=Special:UserLogin&returnto=Succinic+acid","/wiki/Succinic_acid","/wiki/Talk:Succinic_acid","#","/wiki/Succinic_acid","/w/index.php?title=Succinic_acid&action=edit","/w/index.php?title=Succinic_acid&action=history","#","/w/index.php","//bits.wikimedia.org/static-1.21wmf11/skins/vector/images/search-ltr.png?303-4","/wiki/Main_Page","/wiki/Main_Page","/wiki/Portal:Contents","/wiki/Portal:Featured_content","/wiki/Portal:Current_events","/wiki/Special:Random","//donate.wikimedia.org/wiki/Special:FundraiserRedirector?utm_source=donate&utm_medium=sidebar&utm_campaign=C13_en.wikipedia.org&uselang=en","/wiki/Help:Contents","/wiki/Wikipedia:About","/wiki/Wikipedia:Community_portal","/wiki/Special:RecentChanges","/wiki/Wikipedia:Contact_us","/wiki/Special:WhatLinksHere/Succinic_acid","/wiki/Special:RecentChangesLinked/Succinic_acid","/wiki/Wikipedia:File_Upload_Wizard","/wiki/Special:SpecialPages","/w/index.php?title=Succinic_acid&oldid=539550081","/w/index.php?title=Succinic_acid&action=info","/w/index.php?title=Special:Cite&page=Succinic_acid&id=539550081","/w/index.php?title=Special:Book&bookcmd=book_creator&referer=Succinic+acid","/w/index.php?title=Special:Book&bookcmd=render_article&arttitle=Succinic+acid&oldid=539550081&writer=rl","/w/index.php?title=Succinic_acid&printable=yes","//be.wikipedia.org/wiki/%D0%91%D1%83%D1%80%D1%88%D1%82%D1%8B%D0%BD%D0%B0%D0%B2%D0%B0%D1%8F_%D0%BA%D1%96%D1%81%D0%BB%D0%B0%D1%82%D0%B0","//bg.wikipedia.org/wiki/%D0%AF%D0%BD%D1%82%D0%B0%D1%80%D0%BD%D0%B0_%D0%BA%D0%B8%D1%81%D0%B5%D0%BB%D0%B8%D0%BD%D0%B0","//ca.wikipedia.org/wiki/%C3%80cid_succ%C3%ADnic","//cs.wikipedia.org/wiki/Kyselina_jantarov%C3%A1","//da.wikipedia.org/wiki/Ravsyre","//de.wikipedia.org/wiki/Bernsteins%C3%A4ure","//el.wikipedia.org/wiki/%CE%97%CE%BB%CE%B5%CE%BA%CF%84%CF%81%CE%B9%CE%BA%CF%8C_%CE%BF%CE%BE%CF%8D","//es.wikipedia.org/wiki/%C3%81cido_succ%C3%ADnico","//fa.wikipedia.org/wiki/%D8%B3%D9%88%D8%B3%DB%8C%D9%86%DB%8C%DA%A9_%D8%A7%D8%B3%DB%8C%D8%AF","//fr.wikipedia.org/wiki/Acide_succinique","//gl.wikipedia.org/wiki/%C3%81cido_succ%C3%ADnico","//ko.wikipedia.org/wiki/%EC%88%99%EC%8B%A0%EC%82%B0","//hi.wikipedia.org/wiki/%E0%A4%B8%E0%A4%95%E0%A5%8D%E0%A4%B8%E0%A5%80%E0%A4%A8%E0%A4%BF%E0%A4%95_%E0%A4%85%E0%A4%AE%E0%A5%8D%E0%A4%B2","//it.wikipedia.org/wiki/Acido_succinico","//he.wikipedia.org/wiki/%D7%97%D7%95%D7%9E%D7%A6%D7%94_%D7%A1%D7%95%D7%A7%D7%A1%D7%99%D7%A0%D7%99%D7%AA","//lv.wikipedia.org/wiki/Dzintarsk%C4%81be","//hu.wikipedia.org/wiki/Borosty%C3%A1nk%C5%91sav","//ml.wikipedia.org/wiki/%E0%B4%85%E0%B4%A1%E0%B4%BF%E0%B4%AA%E0%B5%8D%E0%B4%AA%E0%B4%BF%E0%B4%95%E0%B5%8D_%E0%B4%85%E0%B4%AE%E0%B5%8D%E0%B4%B2%E0%B4%82","//nl.wikipedia.org/wiki/Barnsteenzuur","//ja.wikipedia.org/wiki/%E3%82%B3%E3%83%8F%E3%82%AF%E9%85%B8","//pl.wikipedia.org/wiki/Kwas_bursztynowy","//pt.wikipedia.org/wiki/%C3%81cido_succ%C3%ADnico","//ro.wikipedia.org/wiki/Acid_succinic","//ru.wikipedia.org/wiki/%D0%AF%D0%BD%D1%82%D0%B0%D1%80%D0%BD%D0%B0%D1%8F_%D0%BA%D0%B8%D1%81%D0%BB%D0%BE%D1%82%D0%B0","//sr.wikipedia.org/wiki/Sukcinska_kiselina","//fi.wikipedia.org/wiki/Meripihkahappo","//sv.wikipedia.org/wiki/B%C3%A4rnstenssyra","//ta.wikipedia.org/wiki/%E0%AE%9A%E0%AE%95%E0%AF%8D%E0%AE%9A%E0%AE%BF%E0%AE%A9%E0%AE%BF%E0%AE%95%E0%AF%8D_%E0%AE%85%E0%AE%AE%E0%AE%BF%E0%AE%B2%E0%AE%AE%E0%AF%8D","//te.wikipedia.org/wiki/%E0%B0%B8%E0%B0%95%E0%B1%8D%E0%B0%B8%E0%B0%BF%E0%B0%A8%E0%B0%BF%E0%B0%95%E0%B1%8D_%E0%B0%86%E0%B0%AE%E0%B1%8D%E0%B0%B2%E0%B0%82","//uk.wikipedia.org/wiki/%D0%91%D1%83%D1%80%D1%88%D1%82%D0%B8%D0%BD%D0%BE%D0%B2%D0%B0_%D0%BA%D0%B8%D1%81%D0%BB%D0%BE%D1%82%D0%B0","//vi.wikipedia.org/wiki/Axit_succinic","//zh.wikipedia.org/wiki/%E7%90%A5%E7%8F%80%E9%85%B8","//www.wikidata.org/wiki/Special:ItemByTitle/enwiki/Succinic acid","//en.wikipedia.org/wiki/Wikipedia:Text_of_Creative_Commons_Attribution-ShareAlike_3.0_Unported_License","//creativecommons.org/licenses/by-sa/3.0/","//wikimediafoundation.org/wiki/Terms_of_Use","//www.wikimediafoundation.org/","//en.wikipedia.org/wiki/Wikipedia:Contact_us","//wikimediafoundation.org/wiki/Privacy_policy","/wiki/Wikipedia:About","/wiki/Wikipedia:General_disclaimer","http://en.m.wikipedia.org/wiki/Succinic_acid","//wikimediafoundation.org/","//bits.wikimedia.org/images/wikimedia-button.png","//www.mediawiki.org/","//bits.wikimedia.org/static-1.21wmf11/skins/common/images/poweredby_mediawiki_88x31.png","//bits.wikimedia.org/en.wikipedia.org/load.php?debug=false&lang=en&modules=skins.vector&only=scripts&skin=vector&*","/w/index.php?title=MediaWiki:Gadget-ReferenceTooltips.js&action=raw&ctype=text/javascript&508635914","//bits.wikimedia.org/en.wikipedia.org/load.php?debug=false&lang=en&modules=site&only=scripts&skin=vector&*"],"instances":[],"pdf":["http://bio-amber.com/ignitionweb/data/media_centre_files/661/MSDS_SUCCINIC_ACID_USA_ENGLISH_VERSION.pdf"],"categories":["Citric acid cycle compounds","Dicarboxylic acids","Excipients","Succinates"],"headings":["Production and reactions","Applications","Biochemistry","Succinates","Safety","See also","References","External links"],"image":["//upload.wikimedia.org/wikipedia/commons/thumb/9/9f/Bernsteins%C3%A4ure2.svg/200px-Bernsteins%C3%A4ure2.svg.png","//upload.wikimedia.org/wikipedia/commons/thumb/8/84/Succinic-acid-3D-balls.png/200px-Succinic-acid-3D-balls.png","//upload.wikimedia.org/wikipedia/commons/thumb/7/7d/Sample_of_succinic_acid.jpg/200px-Sample_of_succinic_acid.jpg","//upload.wikimedia.org/wikipedia/en/thumb/f/fb/Yes_check.svg/7px-Yes_check.svg.png","//upload.wikimedia.org/wikipedia/en/thumb/f/fb/Yes_check.svg/7px-Yes_check.svg.png","//upload.wikimedia.org/wikipedia/en/thumb/f/fb/Yes_check.svg/7px-Yes_check.svg.png","//upload.wikimedia.org/wikipedia/en/thumb/f/fb/Yes_check.svg/7px-Yes_check.svg.png","//upload.wikimedia.org/wikipedia/en/thumb/f/fb/Yes_check.svg/7px-Yes_check.svg.png","//upload.wikimedia.org/wikipedia/en/thumb/f/fb/Yes_check.svg/7px-Yes_check.svg.png","//upload.wikimedia.org/wikipedia/en/thumb/f/fb/Yes_check.svg/7px-Yes_check.svg.png","//upload.wikimedia.org/wikipedia/en/thumb/f/fb/Yes_check.svg/14px-Yes_check.svg.png","//upload.wikimedia.org/wikipedia/en/thumb/f/fb/Yes_check.svg/10px-Yes_check.svg.png","//upload.wikimedia.org/wikipedia/commons/thumb/a/a2/X_mark.svg/10px-X_mark.svg.png","//upload.wikimedia.org/wikipedia/commons/1/14/TCACycle_WP78.png","//upload.wikimedia.org/wikipedia/commons/1/14/TCACycle_WP78.png","//upload.wikimedia.org/wikipedia/commons/6/6b/Magnify-clip.png","//upload.wikimedia.org/wikipedia/en/thumb/6/62/PD-icon.svg/12px-PD-icon.svg.png","//upload.wikimedia.org/wikipedia/commons/thumb/c/c8/Oxaloacetate_wpmp.png/24px-Oxaloacetate_wpmp.png","//upload.wikimedia.org/wikipedia/commons/thumb/e/e3/S-malate_wpmp.png/27px-S-malate_wpmp.png","//upload.wikimedia.org/wikipedia/commons/thumb/7/70/Fumarate_wpmp.png/24px-Fumarate_wpmp.png","//upload.wikimedia.org/wikipedia/commons/thumb/5/5a/Succinate_wpmp.png/24px-Succinate_wpmp.png","//upload.wikimedia.org/wikipedia/commons/thumb/d/db/Succinyl-CoA_wpmp.png/24px-Succinyl-CoA_wpmp.png","//upload.wikimedia.org/wikipedia/commons/thumb/5/56/Biochem_reaction_arrow_reverse_NNYY_horiz_med.png/35px-Biochem_reaction_arrow_reverse_NNYY_horiz_med.png","//upload.wikimedia.org/wikipedia/commons/thumb/d/d5/Biochem_reaction_arrow_reverse_NNYN_horiz_med.png/35px-Biochem_reaction_arrow_reverse_NNYN_horiz_med.png","//upload.wikimedia.org/wikipedia/commons/thumb/5/56/Biochem_reaction_arrow_reverse_NNYY_horiz_med.png/35px-Biochem_reaction_arrow_reverse_NNYY_horiz_med.png","//upload.wikimedia.org/wikipedia/commons/thumb/5/56/Biochem_reaction_arrow_reverse_NNYY_horiz_med.png/35px-Biochem_reaction_arrow_reverse_NNYY_horiz_med.png","//upload.wikimedia.org/wikipedia/commons/thumb/e/ed/Acetyl_co-A_wpmp.png/31px-Acetyl_co-A_wpmp.png","//upload.wikimedia.org/wikipedia/commons/thumb/c/cc/Biochem_reaction_arrow_special_1.png/35px-Biochem_reaction_arrow_special_1.png","//upload.wikimedia.org/wikipedia/commons/thumb/4/43/Biochem_reaction_arrow_special_2.png/35px-Biochem_reaction_arrow_special_2.png","//upload.wikimedia.org/wikipedia/commons/thumb/2/22/Citrate_wpmp.png/31px-Citrate_wpmp.png","//upload.wikimedia.org/wikipedia/commons/thumb/e/eb/Cis-Aconitate_wpmp.png/27px-Cis-Aconitate_wpmp.png","//upload.wikimedia.org/wikipedia/commons/thumb/3/3a/Threo-Ds-isocitrate_wpmp.png/35px-Threo-Ds-isocitrate_wpmp.png","//upload.wikimedia.org/wikipedia/commons/thumb/1/19/Oxalosuccinate_wpmp.png/31px-Oxalosuccinate_wpmp.png","//upload.wikimedia.org/wikipedia/commons/thumb/d/d9/2-oxoglutarate_wpmp.svg/24px-2-oxoglutarate_wpmp.svg.png","//upload.wikimedia.org/wikipedia/commons/thumb/e/e9/Biochem_reaction_arrow_foward_NYNN_horiz_med.png/35px-Biochem_reaction_arrow_foward_NYNN_horiz_med.png","//upload.wikimedia.org/wikipedia/commons/thumb/7/71/Biochem_reaction_arrow_foward_YNNN_horiz_med.png/35px-Biochem_reaction_arrow_foward_YNNN_horiz_med.png","//upload.wikimedia.org/wikipedia/commons/thumb/9/90/Biochem_reaction_arrow_foward_YYNN_horiz_med.png/35px-Biochem_reaction_arrow_foward_YYNN_horiz_med.png","//upload.wikimedia.org/wikipedia/commons/thumb/e/e9/Biochem_reaction_arrow_foward_NYNN_horiz_med.png/35px-Biochem_reaction_arrow_foward_NYNN_horiz_med.png","//bits.wikimedia.org/static-1.21wmf11/skins/vector/images/search-ltr.png?303-4","//bits.wikimedia.org/images/wikimedia-button.png","//bits.wikimedia.org/static-1.21wmf11/skins/common/images/poweredby_mediawiki_88x31.png"],"tags":[],"members":[],"related":["Sodium_succinate","Carboxylic_acid","Propionic_acid","Malonic_acid","Butyric_acid","Malic_acid","Tartaric_acid","Fumaric_acid","Valeric_acid","Glutaric_acid","IUPAC","Systematic_name","Dicarboxylic_acid","Diprotic","Solid","Citric_acid_cycle","Amber","Amber","Sand_bath","Rheumatic","Gleet","Hydrogenation","Maleic_acid","Carbonylation","Ethylene_glycol","Fumaric_acid","Stobbe_condensation","Succinic_anhydride","Polyester","Alkyd_resin","Acidity_regulator","Nutraceutical","Food_additive","Dietary_supplement","U.S._Food_and_Drug_Administration","Excipient","Effervescent","Citric_acid_cycle","Electron","Electron_transport_chain","FAD","Fumarate","FADH2","Succinate_dehydrogenase","Ester","Oil_of_amber"]}