{"cursor":"6595","size":14,"audio":[],"currentlang":"en","article":"\n{{Chembox\n| Verifiedfields = changed Watchedfields = changed verifiedrevid = 411133144\n| ImageFile = Octane-2D-Skeletal.svg ImageFile_Ref = ImageSize = 160 ImageName =\n| Skeletal formula of octane ImageFile1 = OctaneFull.png ImageFile1_Ref =\n| ImageSize1 = 160 ImageName1 = Skeletal formula of octane with all implicit\n| carbons shown, and all explicit hydrogens added ImageFile2 = Octane-3D-balls-\n| B.png ImageFile2_Ref = ImageSize2 = 160 ImageName2 = Ball and stick model of\n| octane ImageFile3 = N-octane-spaceFilling.png ImageFile3_Ref = ImageSize3 =\n| 160 ImageName3 = Spacefill model of octane IUPACName = Octane\n| Section1 = {{Chembox Identifiers CASNo = 111-65-9 CASNo_Ref = PubChem = 356\n| PubChem_Ref = ChemSpiderID = 349 ChemSpiderID_Ref = EINECS = 203-892-1\n| UNNumber = 1262 DrugBank = DB02440 DrugBank_Ref = KEGG = C01387 KEGG_Ref =\n| MeSHName = octane ChEBI = 17590 ChEBI_Ref = ChEMBL = 134886 ChEMBL_Ref = RTECS\n| = RG8400000 Beilstein = 1696875 Gmelin = 82412 3DMet = B00281 SMILES =\n| CCCCCCCC StdInChI = 1S/C8H18/c1-3-5-7-8-6-4-2/h3-8H2,1-2H3 StdInChI_Ref =\n| StdInChIKey = TVMXDCGIABBOFY-UHFFFAOYSA-N StdInChIKey_Ref =\n}}\n| Section2 = {{Chembox Properties C = 8 H = 18 Appearance = Colorless liquid\n| Odor = Gasoline-like Density = 703 mg mL −1 MeltingPtKL = 216.0\n| MeltingPtKH = 216.6 BoilingPtKL = 398.2 BoilingPtKH = 399.2 Solubility = 7 mg\n| L −1 (at 20 C°) LogP = 4.783 VaporPressure = 1.47 kPa (at 20.0 °C)\n| HenryConstant = 29 nmol Pa −1 kg −1 RefractIndex = 1.398\n| Viscosity = 542 μPa s (at 20 °C)\n}}\n| Section3 = {{Chembox Thermochemistry DeltaHf = −252.1–−248.5 kJ\n| mol −1 DeltaHc = −5.53–−5.33 MJ mol −1 Entropy = 361.20 J\n| K −1 mol −1 HeatCapacity = 255.68 J K −1\n| mol −1\n}}\n| Section4 = {{Chembox Hazards GHSPictograms = GHSSignalWord = 'DANGER' HPhrases\n| = PPhrases = EUIndex = 601-009-00-8 EUClass = RPhrases = , , , , SPhrases = ,\n| , , FlashPt = 13.0 °C Autoignition = 220.0 °C ExploLimits = 0.96–6.5%\n}}\n| Section5 = {{Chembox Related Function = alkanes OtherFunctn =\n}} }} 'Octane' is a hydrocarbon and an alkane with the chemical formula\nC 8H 18 , and the condensed structural formula\nCH 3(CH 2) 6CH 3. Octane has many\nstructural isomers that differ by the amount and location of branching in the\ncarbon chain. One of these isomers, 2,2,4-trimethylpentane (isooctane) is used\nas one of the standard values in the octane rating scale.\n\nAs with all low-molecular weight hydrocarbons, octane and its isomers are very\nflammable. It and its isomers are components of gasoline (petrol).\n","linknr":297,"url":"Octane","recorded":1364130579,"links":["/w/index.php?title=Octane&action=edit","/w/index.php?title=Octane&action=edit","//en.wikipedia.org/apple-touch-icon.png","//bits.wikimedia.org/favicon/wikipedia.ico","/w/opensearch_desc.php","//en.wikipedia.org/w/api.php?action=rsd","//creativecommons.org/licenses/by-sa/3.0/","/w/index.php?title=Special:RecentChanges&feed=atom","//bits.wikimedia.org/en.wikipedia.org/load.php?debug=false&lang=en&modules=ext.gadget.DRN-wizard%2CReferenceTooltips%2Ccharinsert%2Cteahouse%7Cext.wikihiero%7Cmediawiki.legacy.commonPrint%2Cshared%7Cmw.PopUpMediaTransform%7Cskins.vector&only=styles&skin=vector&*","//bits.wikimedia.org/en.wikipedia.org/load.php?debug=false&lang=en&modules=site&only=styles&skin=vector&*","//bits.wikimedia.org/en.wikipedia.org/load.php?debug=false&lang=en&modules=startup&only=scripts&skin=vector&*","//bits.wikimedia.org/geoiplookup","//meta.wikimedia.org","#mw-head","#p-search","/wiki/Octane_rating","/wiki/Octane_(disambiguation)","/wiki/File:Octane-2D-Skeletal.svg","//upload.wikimedia.org/wikipedia/commons/thumb/f/fb/Octane-2D-Skeletal.svg/160px-Octane-2D-Skeletal.svg.png","/wiki/File:OctaneFull.png","//upload.wikimedia.org/wikipedia/commons/thumb/4/4f/OctaneFull.png/160px-OctaneFull.png","/wiki/File:Octane-3D-balls-B.png","//upload.wikimedia.org/wikipedia/commons/thumb/0/08/Octane-3D-balls-B.png/160px-Octane-3D-balls-B.png","/wiki/File:N-octane-spaceFilling.png","//upload.wikimedia.org/wikipedia/commons/thumb/f/f8/N-octane-spaceFilling.png/160px-N-octane-spaceFilling.png","/wiki/International_Union_of_Pure_and_Applied_Chemistry_nomenclature","#cite_note-1","/wiki/CAS_registry_number","http://www.commonchemistry.org/ChemicalDetail.aspx?ref=111-65-9","//upload.wikimedia.org/wikipedia/en/thumb/f/fb/Yes_check.svg/7px-Yes_check.svg.png","/wiki/PubChem","http://pubchem.ncbi.nlm.nih.gov/summary/summary.cgi?cid=356","/wiki/ChemSpider","http://www.chemspider.com/349","//upload.wikimedia.org/wikipedia/en/thumb/f/fb/Yes_check.svg/7px-Yes_check.svg.png","/wiki/EC_number_(chemistry)","http://esis.jrc.ec.europa.eu/lib/einecs_IS_reponse.php?genre=ECNO&entree=203-892-1","/wiki/UN_number","/wiki/DrugBank","http://www.drugbank.ca/drugs/DB02440","/wiki/KEGG","http://www.kegg.jp/entry/C01387","//upload.wikimedia.org/wikipedia/en/thumb/f/fb/Yes_check.svg/7px-Yes_check.svg.png","/wiki/Medical_Subject_Headings","http://www.nlm.nih.gov/cgi/mesh/2007/MB_cgi?mode=&term=octane","/wiki/ChEBI","https://www.ebi.ac.uk/chebi/searchId.do?chebiId=17590","//upload.wikimedia.org/wikipedia/commons/thumb/a/a2/X_mark.svg/7px-X_mark.svg.png","/wiki/ChEMBL","https://www.ebi.ac.uk/chembldb/index.php/compound/inspect/CHEMBL134886","//upload.wikimedia.org/wikipedia/en/thumb/f/fb/Yes_check.svg/7px-Yes_check.svg.png","/wiki/RTECS","/wiki/Beilstein_database","/wiki/Gmelin_database","http://www.3dmet.dna.affrc.go.jp/html/B00281.html","/wiki/Jmol","http://chemapps.stolaf.edu/jmol/jmol.php?model=CCCCCCCC","/wiki/Simplified_molecular-input_line-entry_system","/wiki/International_Chemical_Identifier","//upload.wikimedia.org/wikipedia/en/thumb/f/fb/Yes_check.svg/7px-Yes_check.svg.png","//upload.wikimedia.org/wikipedia/en/thumb/f/fb/Yes_check.svg/7px-Yes_check.svg.png","/wiki/Molecular_formula","/wiki/Molar_mass","/wiki/Odor","/wiki/Density","/wiki/Melting_point","/wiki/Boiling_point","/wiki/Solubility","/wiki/Water","/wiki/Partition_coefficient","/wiki/Vapor_pressure","/wiki/Henry%27s_law","/wiki/Refractive_index","/wiki/Viscosity","/wiki/Standard_enthalpy_change_of_formation","/wiki/Standard_enthalpy_change_of_combustion","/wiki/Standard_molar_entropy","/wiki/Specific_heat_capacity","/wiki/GHS_hazard_pictograms","/wiki/File:GHS-pictogram-flamme.svg","//upload.wikimedia.org/wikipedia/commons/thumb/6/6d/GHS-pictogram-flamme.svg/50px-GHS-pictogram-flamme.svg.png","/wiki/File:GHS-pictogram-exclam.svg","//upload.wikimedia.org/wikipedia/commons/thumb/c/c3/GHS-pictogram-exclam.svg/50px-GHS-pictogram-exclam.svg.png","/wiki/File:GHS-pictogram-silhouete.svg","//upload.wikimedia.org/wikipedia/commons/thumb/d/d5/GHS-pictogram-silhouete.svg/50px-GHS-pictogram-silhouete.svg.png","/wiki/File:GHS-pictogram-pollu.svg","//upload.wikimedia.org/wikipedia/commons/thumb/b/b9/GHS-pictogram-pollu.svg/50px-GHS-pictogram-pollu.svg.png","/wiki/Globally_Harmonized_System_of_Classification_and_Labelling_of_Chemicals","/wiki/GHS_hazard_statement","/wiki/GHS_precautionary_statements","/wiki/Dangerous_Substances_Directive_(67/548/EEC)","/wiki/File:Hazard_F.svg","//upload.wikimedia.org/wikipedia/commons/thumb/0/06/Hazard_F.svg/40px-Hazard_F.svg.png","/wiki/File:Hazard_X.svg","//upload.wikimedia.org/wikipedia/commons/thumb/e/ed/Hazard_X.svg/40px-Hazard_X.svg.png","/wiki/File:Hazard_N.svg","//upload.wikimedia.org/wikipedia/commons/thumb/6/6a/Hazard_N.svg/40px-Hazard_N.svg.png","/wiki/List_of_R-phrases","/wiki/R11:_Highly_flammable","/wiki/R38:_Irritating_to_skin","/wiki/R50/53:_Very_toxic_to_aquatic_organisms,_may_cause_long-term_adverse_effects_in_the_aquatic_environment","/wiki/R65:_Harmful:_may_cause_lung_damage_if_swallowed","/wiki/R67:_Vapours_may_cause_drowsiness_and_dizziness","/wiki/List_of_S-phrases","/wiki/(S2):_Keep_out_of_the_reach_of_children","/wiki/S16:_Keep_away_from_sources_of_ignition_-_No_smoking","/wiki/S29:_Do_not_empty_into_drains","/wiki/S33:_Take_precautionary_measures_against_static_discharges","/wiki/Flash_point","/wiki/Autoignition_temperature","/wiki/Explosive_limit","/wiki/Heptane","/wiki/Nonane","//upload.wikimedia.org/wikipedia/commons/thumb/a/a2/X_mark.svg/14px-X_mark.svg.png","//en.wikipedia.org/w/index.php?title=Special:ComparePages&rev1=411133144&page2=Octane","/wiki/Wikipedia:WikiProject_Chemicals/Chembox_validation","//upload.wikimedia.org/wikipedia/en/thumb/f/fb/Yes_check.svg/10px-Yes_check.svg.png","//upload.wikimedia.org/wikipedia/commons/thumb/a/a2/X_mark.svg/10px-X_mark.svg.png","/wiki/Standard_state","/wiki/Wikipedia:Chemical_infobox#References","/wiki/Hydrocarbon","/wiki/Alkane","/wiki/Chemical_formula","/wiki/Structural_isomer","/wiki/2,2,4-Trimethylpentane","/wiki/Octane_rating","/wiki/Gasoline","#Use_of_the_term_in_gasoline","#Metaphorical_use","#Isomers","#References","#External_links","/w/index.php?title=Octane&action=edit&section=1","/wiki/Octane_rating","/wiki/Isooctane","/wiki/Engine_knock","#cite_note-2","/w/index.php?title=Octane&action=edit&section=2","/wiki/Gasoline","/wiki/1973_Oil_Crisis","/wiki/Michael_Crichton","/wiki/Jurassic_Park_(novel)","/wiki/Newsday","/wiki/Wikipedia:Citation_needed","/w/index.php?title=Octane&action=edit&section=3","/wiki/Stereoisomer","/wiki/2-Methylheptane","/wiki/3-Methylheptane","/wiki/Enantiomers","/w/index.php?title=4-Methylheptane&action=edit&redlink=1","/w/index.php?title=3-Ethylhexane&action=edit&redlink=1","/w/index.php?title=2,2-Dimethylhexane&action=edit&redlink=1","/wiki/2,3-Dimethylhexane","/w/index.php?title=2,4-Dimethylhexane&action=edit&redlink=1","/wiki/2,5-Dimethylhexane","/w/index.php?title=3,3-Dimethylhexane&action=edit&redlink=1","/w/index.php?title=3,4-Dimethylhexane&action=edit&redlink=1","/wiki/Meso_compound","/w/index.php?title=3-Ethyl-2-methylpentane&action=edit&redlink=1","/w/index.php?title=3-Ethyl-3-methylpentane&action=edit&redlink=1","/w/index.php?title=2,2,3-Trimethylpentane&action=edit&redlink=1","/wiki/2,2,4-Trimethylpentane","/wiki/2,3,3-Trimethylpentane","/wiki/2,3,4-Trimethylpentane","/wiki/2,2,3,3-Tetramethylbutane","/w/index.php?title=Octane&action=edit&section=4","#cite_ref-1","http://pubchem.ncbi.nlm.nih.gov/summary/summary.cgi?cid=356&loc=ec_rcs","http://pubchem.ncbi.nlm.nih.gov/summary/summary.cgi?cid=356&loc=ec_rcs","#cite_ref-2","http://www.eejitsguides.com/environment/fuel-octane-summary.html","/w/index.php?title=Octane&action=edit&section=5","http://www.inchem.org/documents/icsc/icsc/eics0933.htm","/wiki/NIOSH","http://www.cdc.gov/niosh/npg/npgd0470.html","http://www.ars-grin.gov/cgi-bin/duke/chemical.pl?OCTANE","/wiki/Template:Alkanes","/wiki/Template_talk:Alkanes","//en.wikipedia.org/w/index.php?title=Template:Alkanes&action=edit","/wiki/Alkane","/wiki/Methane","/wiki/Ethane","/wiki/Propane","/wiki/Butane","/wiki/Pentane","/wiki/Hexane","/wiki/Heptane","/wiki/Nonane","/wiki/Decane","/wiki/Undecane","/wiki/Dodecane","/wiki/Tridecane","/wiki/Tetradecane","/wiki/Pentadecane","/wiki/Hexadecane","/wiki/Heptadecane","/wiki/Octadecane","/wiki/Nonadecane","/wiki/Icosane","/wiki/Higher_alkanes","/wiki/List_of_straight-chain_alkanes","http://en.wikipedia.org/w/index.php?title=Octane&oldid=541398901","/wiki/Help:Categories","/wiki/Category:Alkanes","/wiki/Category:Hydrocarbons","/wiki/Category:Articles_with_changed_EBI_identifier","/wiki/Category:Chemboxes_which_contain_changes_to_verified_fields","/wiki/Category:Chemboxes_which_contain_changes_to_watched_fields","/wiki/Category:All_articles_with_unsourced_statements","/wiki/Category:Articles_with_unsourced_statements_from_January_2010","/w/index.php?title=Special:UserLogin&returnto=Octane&type=signup","/w/index.php?title=Special:UserLogin&returnto=Octane","/wiki/Octane","/wiki/Talk:Octane","#","/wiki/Octane","/w/index.php?title=Octane&action=edit","/w/index.php?title=Octane&action=history","#","/w/index.php","//bits.wikimedia.org/static-1.21wmf11/skins/vector/images/search-ltr.png?303-4","/wiki/Main_Page","/wiki/Main_Page","/wiki/Portal:Contents","/wiki/Portal:Featured_content","/wiki/Portal:Current_events","/wiki/Special:Random","//donate.wikimedia.org/wiki/Special:FundraiserRedirector?utm_source=donate&utm_medium=sidebar&utm_campaign=C13_en.wikipedia.org&uselang=en","/wiki/Help:Contents","/wiki/Wikipedia:About","/wiki/Wikipedia:Community_portal","/wiki/Special:RecentChanges","/wiki/Wikipedia:Contact_us","/wiki/Special:WhatLinksHere/Octane","/wiki/Special:RecentChangesLinked/Octane","/wiki/Wikipedia:File_Upload_Wizard","/wiki/Special:SpecialPages","/w/index.php?title=Octane&oldid=541398901","/w/index.php?title=Octane&action=info","/w/index.php?title=Special:Cite&page=Octane&id=541398901","/w/index.php?title=Special:Book&bookcmd=book_creator&referer=Octane","/w/index.php?title=Special:Book&bookcmd=render_article&arttitle=Octane&oldid=541398901&writer=rl","/w/index.php?title=Octane&printable=yes","//ar.wikipedia.org/wiki/%D8%A3%D9%88%D9%83%D8%AA%D8%A7%D9%86","//az.wikipedia.org/wiki/Oktan","//bg.wikipedia.org/wiki/%D0%9E%D0%BA%D1%82%D0%B0%D0%BD","//bs.wikipedia.org/wiki/Oktan","//ca.wikipedia.org/wiki/Oct%C3%A0","//cs.wikipedia.org/wiki/Oktan","//da.wikipedia.org/wiki/Octan","//de.wikipedia.org/wiki/Octane_(Chemie)","//el.wikipedia.org/wiki/%CE%9F%CE%BA%CF%84%CE%AC%CE%BD%CE%B9%CE%BF","//es.wikipedia.org/wiki/Octano","//eo.wikipedia.org/wiki/Oktano","//fa.wikipedia.org/wiki/%D8%A7%DA%A9%D8%AA%D8%A7%D9%86","//fr.wikipedia.org/wiki/Octane","//ko.wikipedia.org/wiki/%EC%98%A5%ED%85%8C%EC%9D%B8","//hi.wikipedia.org/wiki/%E0%A4%91%E0%A4%95%E0%A5%8D%E0%A4%9F%E0%A5%87%E0%A4%A8","//id.wikipedia.org/wiki/Oktana","//it.wikipedia.org/wiki/Ottano","//kk.wikipedia.org/wiki/%D0%9E%D0%BA%D1%82%D0%B0%D0%BD","//ku.wikipedia.org/wiki/Oktan","//lv.wikipedia.org/wiki/Okt%C4%81ns","//hu.wikipedia.org/wiki/Okt%C3%A1n","//nl.wikipedia.org/wiki/Octaan","//ja.wikipedia.org/wiki/%E3%82%AA%E3%82%AF%E3%82%BF%E3%83%B3","//no.wikipedia.org/wiki/Oktan","//pms.wikipedia.org/wiki/Otan","//pl.wikipedia.org/wiki/Oktan","//pt.wikipedia.org/wiki/Octano","//ru.wikipedia.org/wiki/%D0%9E%D0%BA%D1%82%D0%B0%D0%BD","//simple.wikipedia.org/wiki/Octane","//sr.wikipedia.org/wiki/%D0%9E%D0%BA%D1%82%D0%B0%D0%BD","//fi.wikipedia.org/wiki/Oktaani_(kemia)","//sv.wikipedia.org/wiki/Oktan","//tl.wikipedia.org/wiki/Oktano","//ta.wikipedia.org/wiki/%E0%AE%86%E0%AE%95%E0%AF%8D%E0%AE%9F%E0%AF%87%E0%AE%A9%E0%AF%8D","//tr.wikipedia.org/wiki/Oktan","//uk.wikipedia.org/wiki/%D0%9E%D0%BA%D1%82%D0%B0%D0%BD","//vi.wikipedia.org/wiki/Octan","//zh.wikipedia.org/wiki/%E8%BE%9B%E7%83%B7","//www.wikidata.org/wiki/Special:ItemByTitle/enwiki/Octane","//en.wikipedia.org/wiki/Wikipedia:Text_of_Creative_Commons_Attribution-ShareAlike_3.0_Unported_License","//creativecommons.org/licenses/by-sa/3.0/","//wikimediafoundation.org/wiki/Terms_of_Use","//www.wikimediafoundation.org/","//en.wikipedia.org/wiki/Wikipedia:Contact_us","//wikimediafoundation.org/wiki/Privacy_policy","/wiki/Wikipedia:About","/wiki/Wikipedia:General_disclaimer","http://en.m.wikipedia.org/wiki/Octane","//wikimediafoundation.org/","//bits.wikimedia.org/images/wikimedia-button.png","//www.mediawiki.org/","//bits.wikimedia.org/static-1.21wmf11/skins/common/images/poweredby_mediawiki_88x31.png","//bits.wikimedia.org/en.wikipedia.org/load.php?debug=false&lang=en&modules=skins.vector&only=scripts&skin=vector&*","/w/index.php?title=MediaWiki:Gadget-ReferenceTooltips.js&action=raw&ctype=text/javascript&508635914","//bits.wikimedia.org/en.wikipedia.org/load.php?debug=false&lang=en&modules=site&only=scripts&skin=vector&*"],"instances":[],"pdf":[],"categories":["Alkanes","Hydrocarbons"],"headings":["Use of the term in gasoline","Metaphorical use","Isomers","References","External links"],"image":["//upload.wikimedia.org/wikipedia/commons/thumb/f/fb/Octane-2D-Skeletal.svg/160px-Octane-2D-Skeletal.svg.png","//upload.wikimedia.org/wikipedia/commons/thumb/4/4f/OctaneFull.png/160px-OctaneFull.png","//upload.wikimedia.org/wikipedia/commons/thumb/0/08/Octane-3D-balls-B.png/160px-Octane-3D-balls-B.png","//upload.wikimedia.org/wikipedia/commons/thumb/f/f8/N-octane-spaceFilling.png/160px-N-octane-spaceFilling.png","//upload.wikimedia.org/wikipedia/en/thumb/f/fb/Yes_check.svg/7px-Yes_check.svg.png","//upload.wikimedia.org/wikipedia/en/thumb/f/fb/Yes_check.svg/7px-Yes_check.svg.png","//upload.wikimedia.org/wikipedia/en/thumb/f/fb/Yes_check.svg/7px-Yes_check.svg.png","//upload.wikimedia.org/wikipedia/commons/thumb/a/a2/X_mark.svg/7px-X_mark.svg.png","//upload.wikimedia.org/wikipedia/en/thumb/f/fb/Yes_check.svg/7px-Yes_check.svg.png","//upload.wikimedia.org/wikipedia/en/thumb/f/fb/Yes_check.svg/7px-Yes_check.svg.png","//upload.wikimedia.org/wikipedia/en/thumb/f/fb/Yes_check.svg/7px-Yes_check.svg.png","//upload.wikimedia.org/wikipedia/commons/thumb/6/6d/GHS-pictogram-flamme.svg/50px-GHS-pictogram-flamme.svg.png","//upload.wikimedia.org/wikipedia/commons/thumb/c/c3/GHS-pictogram-exclam.svg/50px-GHS-pictogram-exclam.svg.png","//upload.wikimedia.org/wikipedia/commons/thumb/d/d5/GHS-pictogram-silhouete.svg/50px-GHS-pictogram-silhouete.svg.png","//upload.wikimedia.org/wikipedia/commons/thumb/b/b9/GHS-pictogram-pollu.svg/50px-GHS-pictogram-pollu.svg.png","//upload.wikimedia.org/wikipedia/commons/thumb/0/06/Hazard_F.svg/40px-Hazard_F.svg.png","//upload.wikimedia.org/wikipedia/commons/thumb/e/ed/Hazard_X.svg/40px-Hazard_X.svg.png","//upload.wikimedia.org/wikipedia/commons/thumb/6/6a/Hazard_N.svg/40px-Hazard_N.svg.png","//upload.wikimedia.org/wikipedia/commons/thumb/a/a2/X_mark.svg/14px-X_mark.svg.png","//upload.wikimedia.org/wikipedia/en/thumb/f/fb/Yes_check.svg/10px-Yes_check.svg.png","//upload.wikimedia.org/wikipedia/commons/thumb/a/a2/X_mark.svg/10px-X_mark.svg.png","//bits.wikimedia.org/static-1.21wmf11/skins/vector/images/search-ltr.png?303-4","//bits.wikimedia.org/images/wikimedia-button.png","//bits.wikimedia.org/static-1.21wmf11/skins/common/images/poweredby_mediawiki_88x31.png"],"tags":[],"members":[],"related":["Hydrocarbon","Alkane","Chemical_formula","Structural_isomer","2,2,4-Trimethylpentane","Octane_rating","Gasoline","Octane_rating","Isooctane","Engine_knock","Gasoline","1973_Oil_Crisis","Michael_Crichton","Stereoisomer","2-Methylheptane","3-Methylheptane","Enantiomers","4-Methylheptane","3-Ethylhexane","2,2-Dimethylhexane","2,3-Dimethylhexane","2,4-Dimethylhexane","2,5-Dimethylhexane","3,3-Dimethylhexane","3,4-Dimethylhexane","Meso_compound","3-Ethyl-2-methylpentane","3-Ethyl-3-methylpentane","2,2,3-Trimethylpentane","2,2,4-Trimethylpentane","2,3,3-Trimethylpentane","2,3,4-Trimethylpentane","2,2,3,3-Tetramethylbutane"]}