{"cursor":"3227","size":15,"audio":[],"currentlang":"en","article":"{{chembox\n| verifiedrevid = 443873074 ImageFile=Indole-3-butyric_acid.svg IUPACName = 1H-Indole-3-\n| butanoic acid OtherNames = indole-3-butyric acid 3-indolebutyric acid indolebutyric acid IBA Section1 = {{Chembox Identifiers DrugBank_Ref =\n| DrugBank = DB02740 ChEBI_Ref = ChEBI = 33070 SMILES = O=C(O)CCCc2c1ccccc1nc2\n| ChemSpiderID_Ref = ChemSpiderID = 8298 KEGG_Ref = KEGG = C11284 InChI = 1/C12H13NO2/c14-12(15)7-3-4-9-8-13-11-6-2-1-5-10(9)11/h1-2,5-6,8,13H,3-\n| 4,7H2,(H,14,15) InChIKey = JTEDVYBZBROSJT-UHFFFAOYAT ChEMBL_Ref = ChEMBL =\n| 582878 StdInChI_Ref = StdInChI = 1S/C12H13NO2/c14-12(15)7-3-4-9-8-13-11-6-2-1-5-10(9)11/h1-2,5-6,8,13H,3-\n| 4,7H2,(H,14,15) StdInChIKey_Ref = StdInChIKey = JTEDVYBZBROSJT-UHFFFAOYSA-N\n| CASNo_Ref = CASNo = 133-32-4 RTECS = NL5250000\n  }}\n| Section2 = {{Chembox Properties C=12 | H = 13 | N = 1 | O = 2 Appearance =\n| white to light yellow crystals Density = 1.252g/cm 3 Solubility =\n| MeltingPtC = 125 BoilingPt = decomposes pKa = pKb = Viscosity =\n  }}\n| Section3 = {{Chembox Structure CrystalStruct = cubic Dipole =\n  }}\n| Section7 = {{Chembox Hazards ExternalMSDS = [http://physchem.ox.ac.uk/MSDS/IN/indole-3-\n| butyric_acid.html Oxford MSDS] MainHazards = FlashPt = 211.8°C RPhrases =\n| SPhrases =\n  }}\n| Section8 = {{Chembox Related Function = OtherFunctn = auxin indole-3-\n| acetic acid\n  }} }}\n\n'Indole-3-butyric acid' (1H-Indole-3-butanoic acid, IBA) is a white to light-\nyellow crystalline solid, with the molecular formula\nC 12 H13 NO 2. It melts at 125 °C in atmospheric\npressure and decomposes before boiling.\n","linknr":145,"url":"Indole-3-butyric_acid","recorded":1364036049,"links":["/w/index.php?title=Indole-3-butyric_acid&action=edit","/w/index.php?title=Indole-3-butyric_acid&action=edit","//en.wikipedia.org/apple-touch-icon.png","//bits.wikimedia.org/favicon/wikipedia.ico","/w/opensearch_desc.php","//en.wikipedia.org/w/api.php?action=rsd","//creativecommons.org/licenses/by-sa/3.0/","/w/index.php?title=Special:RecentChanges&feed=atom","//bits.wikimedia.org/en.wikipedia.org/load.php?debug=false&lang=en&modules=ext.gadget.DRN-wizard%2CReferenceTooltips%2Ccharinsert%2Cteahouse%7Cext.wikihiero%7Cmediawiki.legacy.commonPrint%2Cshared%7Cmw.PopUpMediaTransform%7Cskins.vector&only=styles&skin=vector&*","//bits.wikimedia.org/en.wikipedia.org/load.php?debug=false&lang=en&modules=site&only=styles&skin=vector&*","//bits.wikimedia.org/en.wikipedia.org/load.php?debug=false&lang=en&modules=startup&only=scripts&skin=vector&*","//bits.wikimedia.org/geoiplookup","//meta.wikimedia.org","#mw-head","#p-search","/wiki/File:Indole-3-butyric_acid.svg","//upload.wikimedia.org/wikipedia/commons/thumb/e/e1/Indole-3-butyric_acid.svg/200px-Indole-3-butyric_acid.svg.png","/wiki/International_Union_of_Pure_and_Applied_Chemistry_nomenclature","/wiki/CAS_registry_number","http://www.commonchemistry.org/ChemicalDetail.aspx?ref=133-32-4","//upload.wikimedia.org/wikipedia/en/thumb/f/fb/Yes_check.svg/7px-Yes_check.svg.png","/wiki/ChemSpider","http://www.chemspider.com/8298","//upload.wikimedia.org/wikipedia/en/thumb/f/fb/Yes_check.svg/7px-Yes_check.svg.png","/wiki/DrugBank","http://www.drugbank.ca/drugs/DB02740","/wiki/KEGG","http://www.kegg.jp/entry/C11284","//upload.wikimedia.org/wikipedia/en/thumb/f/fb/Yes_check.svg/7px-Yes_check.svg.png","/wiki/ChEBI","https://www.ebi.ac.uk/chebi/searchId.do?chebiId=33070","//upload.wikimedia.org/wikipedia/en/thumb/f/fb/Yes_check.svg/7px-Yes_check.svg.png","/wiki/ChEMBL","https://www.ebi.ac.uk/chembldb/index.php/compound/inspect/CHEMBL582878","//upload.wikimedia.org/wikipedia/en/thumb/f/fb/Yes_check.svg/7px-Yes_check.svg.png","/wiki/RTECS","/wiki/Jmol","http://chemapps.stolaf.edu/jmol/jmol.php?model=O%3DC%28O%29CCCc2c1ccccc1nc2","/wiki/Simplified_molecular-input_line-entry_system","/wiki/International_Chemical_Identifier","//upload.wikimedia.org/wikipedia/en/thumb/f/fb/Yes_check.svg/7px-Yes_check.svg.png","//upload.wikimedia.org/wikipedia/en/thumb/f/fb/Yes_check.svg/7px-Yes_check.svg.png","/wiki/Molecular_formula","/wiki/Molar_mass","/wiki/Density","/wiki/Melting_point","/wiki/Boiling_point","/wiki/Crystal_structure","/wiki/Cubic_crystal_system","/wiki/MSDS","http://physchem.ox.ac.uk/MSDS/IN/indole-3-butyric_acid.html","/wiki/List_of_R-phrases","/wiki/R25:_Toxic_if_swallowed","/wiki/R36/37/38:_Irritating_to_eyes,_respiratory_system_and_skin","/wiki/List_of_S-phrases","/wiki/S26:_In_case_of_contact_with_eyes,_rinse_immediately_with_plenty_of_water_and_seek_medical_advice","/wiki/S28:_After_contact_with_skin,_wash_immediately_with_plenty_of_..._(to_be_specified_by_the_manufacturer)","/wiki/S36/37/39:_Wear_suitable_protective_clothing,_gloves_and_eye/face_protection","/wiki/S38:_In_case_of_insufficient_ventilation_wear_suitable_respiratory_equipment","/wiki/S45:_In_case_of_accident_or_if_you_feel_unwell_seek_medical_advice_immediately_(show_the_label_where_possible)","/wiki/Flash_point","/wiki/Auxin","/wiki/Indole-3-acetic_acid","//upload.wikimedia.org/wikipedia/en/thumb/f/fb/Yes_check.svg/14px-Yes_check.svg.png","//en.wikipedia.org/w/index.php?title=Special:ComparePages&rev1=443873074&page2=Indole-3-butyric+acid","/wiki/Wikipedia:WikiProject_Chemicals/Chembox_validation","//upload.wikimedia.org/wikipedia/en/thumb/f/fb/Yes_check.svg/10px-Yes_check.svg.png","//upload.wikimedia.org/wikipedia/commons/thumb/a/a2/X_mark.svg/10px-X_mark.svg.png","/wiki/Standard_state","/wiki/Wikipedia:Chemical_infobox#References","/w/index.php?title=Indole-3-butyric_acid&action=edit&section=1","/wiki/Plant_hormone","/wiki/Auxin","/wiki/Solvation","/wiki/Alcohol","/wiki/Parts_per_million","/wiki/Distilled_water","/wiki/Concentration","/wiki/Salt_(chemistry)","/wiki/Chemical_synthesis","/wiki/Willow","#cite_note-1","/w/index.php?title=Indole-3-butyric_acid&action=edit&section=2","#cite_ref-1","/wiki/Special:BookSources/0471192813","http://en.wikipedia.org/w/index.php?title=Indole-3-butyric_acid&oldid=540919127","/wiki/Help:Categories","/wiki/Category:Carboxylic_acids","/wiki/Category:Indoles","/wiki/Category:Auxins","/w/index.php?title=Special:UserLogin&returnto=Indole-3-butyric+acid&type=signup","/w/index.php?title=Special:UserLogin&returnto=Indole-3-butyric+acid","/wiki/Indole-3-butyric_acid","/wiki/Talk:Indole-3-butyric_acid","#","/wiki/Indole-3-butyric_acid","/w/index.php?title=Indole-3-butyric_acid&action=edit","/w/index.php?title=Indole-3-butyric_acid&action=history","#","/w/index.php","//bits.wikimedia.org/static-1.21wmf11/skins/vector/images/search-ltr.png?303-4","/wiki/Main_Page","/wiki/Main_Page","/wiki/Portal:Contents","/wiki/Portal:Featured_content","/wiki/Portal:Current_events","/wiki/Special:Random","//donate.wikimedia.org/wiki/Special:FundraiserRedirector?utm_source=donate&utm_medium=sidebar&utm_campaign=C13_en.wikipedia.org&uselang=en","/wiki/Help:Contents","/wiki/Wikipedia:About","/wiki/Wikipedia:Community_portal","/wiki/Special:RecentChanges","/wiki/Wikipedia:Contact_us","/wiki/Special:WhatLinksHere/Indole-3-butyric_acid","/wiki/Special:RecentChangesLinked/Indole-3-butyric_acid","/wiki/Wikipedia:File_Upload_Wizard","/wiki/Special:SpecialPages","/w/index.php?title=Indole-3-butyric_acid&oldid=540919127","/w/index.php?title=Indole-3-butyric_acid&action=info","/w/index.php?title=Special:Cite&page=Indole-3-butyric_acid&id=540919127","/w/index.php?title=Special:Book&bookcmd=book_creator&referer=Indole-3-butyric+acid","/w/index.php?title=Special:Book&bookcmd=render_article&arttitle=Indole-3-butyric+acid&oldid=540919127&writer=rl","/w/index.php?title=Indole-3-butyric_acid&printable=yes","//de.wikipedia.org/wiki/4-(Indol-3-yl)butters%C3%A4ure","//fa.wikipedia.org/wiki/%D8%A7%D8%B3%DB%8C%D8%AF_%D8%A7%DB%8C%D9%86%D8%AF%D9%88%D9%84-%DB%B3-%D8%A8%D9%88%D8%AA%DB%8C%D8%B1%DB%8C%DA%A9","//it.wikipedia.org/wiki/Acido_indol-3-butirrico","//pl.wikipedia.org/wiki/Kwas_indolilomas%C5%82owy","//sr.wikipedia.org/wiki/Indol-3-buterna_kiselina","//th.wikipedia.org/wiki/Indole-3-butyric_acid","//www.wikidata.org/wiki/Special:ItemByTitle/enwiki/Indole-3-butyric acid","//en.wikipedia.org/wiki/Wikipedia:Text_of_Creative_Commons_Attribution-ShareAlike_3.0_Unported_License","//creativecommons.org/licenses/by-sa/3.0/","//wikimediafoundation.org/wiki/Terms_of_Use","//www.wikimediafoundation.org/","//en.wikipedia.org/wiki/Wikipedia:Contact_us","//wikimediafoundation.org/wiki/Privacy_policy","/wiki/Wikipedia:About","/wiki/Wikipedia:General_disclaimer","http://en.m.wikipedia.org/wiki/Indole-3-butyric_acid","//wikimediafoundation.org/","//bits.wikimedia.org/images/wikimedia-button.png","//www.mediawiki.org/","//bits.wikimedia.org/static-1.21wmf11/skins/common/images/poweredby_mediawiki_88x31.png","//bits.wikimedia.org/en.wikipedia.org/load.php?debug=false&lang=en&modules=skins.vector&only=scripts&skin=vector&*","/w/index.php?title=MediaWiki:Gadget-ReferenceTooltips.js&action=raw&ctype=text/javascript&508635914","//bits.wikimedia.org/en.wikipedia.org/load.php?debug=false&lang=en&modules=site&only=scripts&skin=vector&*"],"instances":["chemistry"],"pdf":[],"categories":["Carboxylic acids","Indoles","Auxins"],"headings":["Plant hormone","References"],"image":["//upload.wikimedia.org/wikipedia/commons/thumb/e/e1/Indole-3-butyric_acid.svg/200px-Indole-3-butyric_acid.svg.png","//upload.wikimedia.org/wikipedia/en/thumb/f/fb/Yes_check.svg/7px-Yes_check.svg.png","//upload.wikimedia.org/wikipedia/en/thumb/f/fb/Yes_check.svg/7px-Yes_check.svg.png","//upload.wikimedia.org/wikipedia/en/thumb/f/fb/Yes_check.svg/7px-Yes_check.svg.png","//upload.wikimedia.org/wikipedia/en/thumb/f/fb/Yes_check.svg/7px-Yes_check.svg.png","//upload.wikimedia.org/wikipedia/en/thumb/f/fb/Yes_check.svg/7px-Yes_check.svg.png","//upload.wikimedia.org/wikipedia/en/thumb/f/fb/Yes_check.svg/7px-Yes_check.svg.png","//upload.wikimedia.org/wikipedia/en/thumb/f/fb/Yes_check.svg/7px-Yes_check.svg.png","//upload.wikimedia.org/wikipedia/en/thumb/f/fb/Yes_check.svg/14px-Yes_check.svg.png","//upload.wikimedia.org/wikipedia/en/thumb/f/fb/Yes_check.svg/10px-Yes_check.svg.png","//upload.wikimedia.org/wikipedia/commons/thumb/a/a2/X_mark.svg/10px-X_mark.svg.png","//bits.wikimedia.org/static-1.21wmf11/skins/vector/images/search-ltr.png?303-4","//bits.wikimedia.org/images/wikimedia-button.png","//bits.wikimedia.org/static-1.21wmf11/skins/common/images/poweredby_mediawiki_88x31.png"],"tags":[["salt","chemistry"]],"members":["salt"],"related":["Cubic_crystal_system","Auxin","Indole-3-acetic_acid","Plant_hormone","Auxin","Solvation","Alcohol","Parts_per_million","Distilled_water","Concentration","Salt_(chemistry)","Chemical_synthesis","Willow"]}