{"cursor":"10331","size":15,"audio":[],"currentlang":"en","article":"{{chembox\n| Verifiedfields = changed Watchedfields = changed verifiedrevid = 477858271\n| ImageFile = Sodium bisulfite.png ImageSize = 140px ImageFile1 = Sodium-bisulfite-3D-\n| balls.png ImageSize1 = 160px ImageName1 = Ball-and-stick model of a bisulfite\n| anion (left) and a sodium cation (right) IUPACName = Sodium hydrogen sulfite\n| OtherNames = E222 Section1 = {{Chembox Identifiers CASNo = 7631-90-5 CASNo_Ref\n| = ChEBI_Ref = ChEBI = 26709 PubChem = 23665763 ChemSpiderID_Ref = ChemSpiderID\n| = 571016 ChEMBL_Ref = ChEMBL = 1689285 SMILES = [Na+].[O-]S(=O)O InChI = 1/Na.H2O3S/c;1-4(2)3/h;(H2,1,2,3)/q+1;/p-\n| 1 InChIKey = DWAQJAXMDSEUJJ-REWHXWOFAL StdInChI_Ref = StdInChI = 1S/Na.H2O3S/c;1-4(2)3/h;(H2,1,2,3)/q+1;/p-\n| 1 StdInChIKey_Ref = StdInChIKey = DWAQJAXMDSEUJJ-UHFFFAOYSA-M RTECS =\n| VZ2000000\n  }}\n| Section2 = {{Chembox Properties Formula = NaHSO 3 MolarMass =\n| 104.061 g/mol Appearance = White solid Odor = slight sulfurous odor Density =\n| 1.48 g/cm 3 MeltingPtC = 150 BoilingPt = Solubility = 42 g/100 mL\n| RefractIndex = 1.526\n  }}\n| Section7 = {{Chembox Hazards ExternalMSDS = EUIndex = 016-064-00-8 EUClass =\n| Harmful ('Xn') RPhrases = SPhrases = , , NFPA-H = 2 NFPA-F = 0 NFPA-R = 1\n| FlashPt = Non-flammable\n  }}\n| Section8 = {{Chembox Related OtherAnions = Sodium sulfite Sodium\n| metabisulfite OtherCations = Potassium bisulfite\n  }} }}\n\n'Sodium bisulfite' ('sodium hydrogen sulfite') is a chemical compound with\nthe chemical formula NaHSO 3. Sodium bisulfite is a food additive\nwith E number E222. This salt of bisulfite can be prepared by bubbling sulfur\ndioxide in a solution of sodium carbonate in water. Sodium bisulfite in\ncontact with chlorine bleach (aqueous solution of sodium hypochlorite) will\nrelease harmful fumes.\n","linknr":379,"url":"Sodium_bisulfite","recorded":1363453606,"links":["/w/index.php?title=Sodium_bisulfite&action=edit","/w/index.php?title=Sodium_bisulfite&action=edit","//en.wikipedia.org/apple-touch-icon.png","//bits.wikimedia.org/favicon/wikipedia.ico","/w/opensearch_desc.php","//en.wikipedia.org/w/api.php?action=rsd","//creativecommons.org/licenses/by-sa/3.0/","/w/index.php?title=Special:RecentChanges&feed=atom","//bits.wikimedia.org/en.wikipedia.org/load.php?debug=false&lang=en&modules=ext.gadget.DRN-wizard%2CReferenceTooltips%2Ccharinsert%2Cteahouse%7Cext.wikihiero%7Cmediawiki.legacy.commonPrint%2Cshared%7Cmw.PopUpMediaTransform%7Cskins.vector&only=styles&skin=vector&*","//bits.wikimedia.org/en.wikipedia.org/load.php?debug=false&lang=en&modules=site&only=styles&skin=vector&*","//bits.wikimedia.org/en.wikipedia.org/load.php?debug=false&lang=en&modules=startup&only=scripts&skin=vector&*","//bits.wikimedia.org/geoiplookup","//meta.wikimedia.org","#mw-head","#p-search","/wiki/File:Sodium_bisulfite.png","//upload.wikimedia.org/wikipedia/commons/thumb/9/98/Sodium_bisulfite.png/140px-Sodium_bisulfite.png","/wiki/File:Sodium-bisulfite-3D-balls.png","//upload.wikimedia.org/wikipedia/commons/thumb/e/e7/Sodium-bisulfite-3D-balls.png/160px-Sodium-bisulfite-3D-balls.png","/wiki/International_Union_of_Pure_and_Applied_Chemistry_nomenclature","/wiki/CAS_registry_number","http://www.commonchemistry.org/ChemicalDetail.aspx?ref=7631-90-5","//upload.wikimedia.org/wikipedia/en/thumb/f/fb/Yes_check.svg/7px-Yes_check.svg.png","/wiki/PubChem","http://pubchem.ncbi.nlm.nih.gov/summary/summary.cgi?cid=23665763","/wiki/ChemSpider","http://www.chemspider.com/571016","//upload.wikimedia.org/wikipedia/en/thumb/f/fb/Yes_check.svg/7px-Yes_check.svg.png","/wiki/ChEBI","https://www.ebi.ac.uk/chebi/searchId.do?chebiId=26709","//upload.wikimedia.org/wikipedia/en/thumb/f/fb/Yes_check.svg/7px-Yes_check.svg.png","/wiki/ChEMBL","https://www.ebi.ac.uk/chembldb/index.php/compound/inspect/CHEMBL1689285","//upload.wikimedia.org/wikipedia/commons/thumb/a/a2/X_mark.svg/7px-X_mark.svg.png","/wiki/RTECS","/wiki/Jmol","http://chemapps.stolaf.edu/jmol/jmol.php?model=%5BNa%2B%5D.%5BO-%5DS%28%3DO%29O","/wiki/Simplified_molecular-input_line-entry_system","/wiki/International_Chemical_Identifier","//upload.wikimedia.org/wikipedia/en/thumb/f/fb/Yes_check.svg/7px-Yes_check.svg.png","//upload.wikimedia.org/wikipedia/en/thumb/f/fb/Yes_check.svg/7px-Yes_check.svg.png","/wiki/Chemical_formula","/wiki/Molar_mass","/wiki/Odor","/wiki/Density","/wiki/Melting_point","/wiki/Solubility","/wiki/Water","/wiki/Refractive_index","/wiki/Dangerous_Substances_Directive_(67/548/EEC)","/wiki/List_of_R-phrases","/wiki/R22:_Harmful_if_swallowed","/wiki/R31:_Contact_with_acids_liberates_toxic_gas","/wiki/List_of_S-phrases","/wiki/(S2):_Keep_out_of_the_reach_of_children","/wiki/S25:_Avoid_contact_with_eyes","/wiki/S46:_If_swallowed,_seek_medical_advice_immediately_and_show_this_container_or_label","/wiki/NFPA_704","/wiki/File:NFPA_704.svg","//upload.wikimedia.org/wikipedia/commons/thumb/6/6f/NFPA_704.svg/75px-NFPA_704.svg.png","/wiki/Flash_point","/wiki/Ion","/wiki/Sodium_sulfite","/wiki/Sodium_metabisulfite","/wiki/Ion","/wiki/Potassium_bisulfite","//upload.wikimedia.org/wikipedia/commons/thumb/a/a2/X_mark.svg/14px-X_mark.svg.png","//en.wikipedia.org/w/index.php?title=Special:ComparePages&rev1=477858271&page2=Sodium+bisulfite","/wiki/Wikipedia:WikiProject_Chemicals/Chembox_validation","//upload.wikimedia.org/wikipedia/en/thumb/f/fb/Yes_check.svg/10px-Yes_check.svg.png","//upload.wikimedia.org/wikipedia/commons/thumb/a/a2/X_mark.svg/10px-X_mark.svg.png","/wiki/Standard_state","/wiki/Wikipedia:Chemical_infobox#References","/wiki/Chemical_compound","/wiki/Chemical_formula","/wiki/Food_additive","/wiki/E_number","/wiki/Bisulfite","/wiki/Sulfur_dioxide","/wiki/Sodium_carbonate","/wiki/Sodium_hypochlorite","#Uses_in_chemistry","#Uses_in_food","#Industrial_uses","#Bisulfite_DNA_sequencing","#See_also","#References","/w/index.php?title=Sodium_bisulfite&action=edit&section=1","/wiki/Organic_chemistry","/wiki/Adduct","/wiki/Aldehyde","/wiki/Ketone","/wiki/Sulfonic_acid","#cite_note-1","/wiki/File:Bisulfitereaction.svg","//upload.wikimedia.org/wikipedia/commons/thumb/0/09/Bisulfitereaction.svg/389px-Bisulfitereaction.svg.png","/wiki/Sodium_bicarbonate","/wiki/Sodium_hydroxide","/wiki/Sulfur_dioxide","#cite_note-2","/wiki/File:Bisulfite_adduct.svg","//upload.wikimedia.org/wikipedia/commons/thumb/7/70/Bisulfite_adduct.svg/306px-Bisulfite_adduct.svg.png","/wiki/Benzaldehyde","#cite_note-3","/wiki/Tetralone","#cite_note-4","/wiki/Citral","#cite_note-5","/wiki/Pyruvic_acid","#cite_note-6","/wiki/Glyoxal","#cite_note-7","/wiki/Cyclohexanone","/wiki/Diazald","/wiki/Cycloheptanone","#cite_note-8","/wiki/Reducing_agent","/wiki/Organic_synthesis","/wiki/Chlorine","/wiki/Bromine","/wiki/Iodine","/wiki/Hypochlorite","/wiki/Osmium_tetroxide","/wiki/Chromium_trioxide","/wiki/Potassium_permanganate","/wiki/Bucherer_reaction","/wiki/Aromatic","/wiki/Hydroxyl","/wiki/Amine","/wiki/Reversible_reaction","/wiki/Addition_reaction","/wiki/Double_bond","/wiki/Bucherer_carbazole_synthesis","/wiki/Organic_reaction","/w/index.php?title=Sodium_bisulfite&action=edit&section=2","/wiki/Sodium_metabisulfite","#cite_note-The_Many_Uses-9","#cite_note-10","#cite_note-11","/w/index.php?title=Sodium_bisulfite&action=edit&section=3","/wiki/Sodium_bisulfate","/wiki/PH","/w/index.php?title=Sodium_bisulfite&action=edit&section=4","/wiki/Bisulfite_sequencing","/wiki/File:Bisulfite-reaction.png","//upload.wikimedia.org/wikipedia/commons/thumb/f/f1/Bisulfite-reaction.png/300px-Bisulfite-reaction.png","/wiki/File:Bisulfite-reaction.png","//bits.wikimedia.org/static-1.21wmf11/skins/common/images/magnify-clip.png","/wiki/Methylation","/wiki/DNA","/wiki/Cytosine","/wiki/Uracil","/wiki/5-methylcytosine","/wiki/Polymerase_chain_reaction","/wiki/DNA_sequencing","#cite_note-12","/w/index.php?title=Sodium_bisulfite&action=edit&section=5","/wiki/Sodium_metabisulfite","/wiki/Calcium_bisulfite","/wiki/Potassium_bisulfite","/wiki/Croscarmellose_sodium","/wiki/Sulfurous_acid","/w/index.php?title=Sodium_bisulfite&action=edit&section=6","#cite_ref-1","http://www.orgsyn.org/orgsyn/orgsyn/prepContent.asp?prep=cv7p0381","/wiki/Organic_Syntheses","http://www.orgsyn.org/orgsyn/orgsyn/prepContent.asp?prep=cv7p0381","#cite_ref-2","/wiki/Richard_F._Heck","http://www.orgsyn.org/orgsyn/orgsyn/prepContent.asp?prep=cv7p0361","/wiki/Organic_Syntheses","http://www.orgsyn.org/orgsyn/orgsyn/prepContent.asp?prep=cv7p0361","#cite_ref-3","/wiki/Charles_R._Hauser","http://www.orgsyn.org/orgsyn/orgsyn/prepContent.asp?prep=cv5p0437","/wiki/Organic_Syntheses","http://www.orgsyn.org/orgsyn/orgsyn/prepContent.asp?prep=cv5p0437","#cite_ref-4","http://www.orgsyn.org/orgsyn/orgsyn/prepContent.asp?prep=cv4p0903","/wiki/Organic_Syntheses","http://www.orgsyn.org/orgsyn/orgsyn/prepContent.asp?prep=cv4p0903","#cite_ref-5","http://www.orgsyn.org/orgsyn/orgsyn/prepContent.asp?prep=cv3p0747","/wiki/Organic_Syntheses","http://www.orgsyn.org/orgsyn/orgsyn/prepContent.asp?prep=cv3p0747","#cite_ref-6","http://www.orgsyn.org/orgsyn/orgsyn/prepContent.asp?prep=cv4p0467","/wiki/Organic_Syntheses","http://www.orgsyn.org/orgsyn/orgsyn/prepContent.asp?prep=cv4p0467","#cite_ref-7","http://www.orgsyn.org/orgsyn/orgsyn/prepContent.asp?prep=cv3p0438","/wiki/Organic_Syntheses","http://www.orgsyn.org/orgsyn/orgsyn/prepContent.asp?prep=cv3p0438","#cite_ref-8","http://www.orgsyn.org/orgsyn/orgsyn/prepContent.asp?prep=cv4p0221","/wiki/Organic_Syntheses","http://www.orgsyn.org/orgsyn/orgsyn/prepContent.asp?prep=cv4p0221","#cite_ref-The_Many_Uses_9-0","http://www.eckraus.com/wine-making-sodium-bisulfite.html","#cite_ref-10","http://books.google.com/books?id=h5gDcj9V4BgC&pg=PA260#v=onepage&q&f=false","/wiki/International_Standard_Book_Number","/wiki/Special:BookSources/1-58829-872-8","http://books.google.com/books?id=h5gDcj9V4BgC&pg=PA260#v=onepage&q&f=false","#cite_ref-11","http://www.aolhealth.com/healthy-living/nutrition/food-ingredients","http://www.aolhealth.com/healthy-living/nutrition/food-ingredients","#cite_ref-12","http://www.pnas.org/cgi/content/abstract/89/5/1827","/wiki/PNAS","/wiki/Digital_object_identifier","http://dx.doi.org/10.1073%2Fpnas.89.5.1827","/wiki/PubMed_Central","//www.ncbi.nlm.nih.gov/pmc/articles/PMC48546","/wiki/PubMed_Identifier","//www.ncbi.nlm.nih.gov/pubmed/1542678","http://www.pnas.org/cgi/content/abstract/89/5/1827","/wiki/Template:Sodium_compounds","/wiki/Template_talk:Sodium_compounds","//en.wikipedia.org/w/index.php?title=Template:Sodium_compounds&action=edit","/wiki/Sodium","/wiki/Sodium_aluminate","/wiki/Sodium_borohydride","/wiki/Sodium_cyanoborohydride","/wiki/Sodium_bismuthate","/wiki/Sodium_bromide","/w/index.php?title=Sodium_hypobromite&action=edit&redlink=1","/wiki/Sodium_bromate","/wiki/Sodium_acetate","/wiki/Sodium_benzoate","/wiki/Sodium_salicylate","/wiki/Sodium_cyanide","/wiki/Sodium_chloride","/wiki/Sodium_hypochlorite","/wiki/Sodium_chlorite","/wiki/Sodium_chlorate","/wiki/Sodium_perchlorate","/wiki/Sodium_fluoride","/w/index.php?title=Sodium_hypofluorite&action=edit&redlink=1","/w/index.php?title=Sodium_ferrate&action=edit&redlink=1","/wiki/Sodium_hydride","/wiki/Sodium_bicarbonate","/wiki/Monosodium_phosphate","/wiki/Sodium_bisulfate","/wiki/Sodium_iodide","/wiki/Sodium_iodate","/wiki/Sodium_periodate","/w/index.php?title=Sodium_orthoperiodate&action=edit&redlink=1","/wiki/Sodium_permanganate","/wiki/Sodium_azide","/wiki/Sodium_amide","/wiki/Sodium_nitrite","/wiki/Sodium_nitrate","/wiki/Sodium_superoxide","/w/index.php?title=Sodium_ozonide&action=edit&redlink=1","/wiki/Sodium_hydroxide","/wiki/Sodium_hypophosphite","/wiki/Sodium_perrhenate","/wiki/Sodium_thiocyanate","/wiki/Sodium_hydrosulfide","/wiki/Sodium_pertechnetate","/wiki/Sodium_metavanadate","/w/index.php?title=Sodium_carbonite&action=edit&redlink=1","/wiki/Sodium_carbonate","/w/index.php?title=Sodium_orthocarbonate&action=edit&redlink=1","/wiki/Sodium_oxalate","/wiki/Sodium_chromate","/wiki/Sodium_dichromate","/wiki/Sodium_manganate","/w/index.php?title=Sodium_hypomanganite&action=edit&redlink=1","/wiki/Sodium_molybdate","/w/index.php?title=Sodium_thiomolybdate&action=edit&redlink=1","/wiki/Sodium_oxide","/wiki/Sodium_peroxide","/wiki/Sodium_uranate","/wiki/Sodium_sulfide","/wiki/Sodium_sulfite","/wiki/Sodium_sulfate","/wiki/Sodium_thiosulfate","/wiki/Sodium_dithionite","/wiki/Sodium_metabisulfite","/wiki/Sodium_dithionate","/wiki/Sodium_pyrosulfate","/wiki/Sodium_persulfate","/wiki/Sodium_selenide","/wiki/Sodium_selenite","/wiki/Sodium_selenate","/wiki/Sodium_silicate","/w/index.php?title=Sodium_matadisilicate&action=edit&redlink=1","/w/index.php?title=Sodium_orthosilicate&action=edit&redlink=1","/wiki/Sodium_telluride","/wiki/Sodium_tellurite","/wiki/Sodium_metatitanate","/wiki/Sodium_diuranate","/wiki/Sodium_tungstate","/wiki/Sodium_zincate","/wiki/Sodium_nitride","/wiki/Sodium_phosphide","/wiki/Sodium_orthovanadate","/wiki/Sodium_ferrocyanide","/wiki/Sodium_triphosphate","/wiki/Chemical_formula","http://en.wikipedia.org/w/index.php?title=Sodium_bisulfite&oldid=539809521","/wiki/Help:Categories","/wiki/Category:Sodium_compounds","/wiki/Category:Bisulfites","/wiki/Category:Reagents_for_organic_chemistry","/wiki/Category:Food_additives","/wiki/Category:Articles_with_changed_EBI_identifier","/wiki/Category:Chemboxes_which_contain_changes_to_verified_fields","/wiki/Category:Chemboxes_which_contain_changes_to_watched_fields","/w/index.php?title=Special:UserLogin&returnto=Sodium+bisulfite&type=signup","/w/index.php?title=Special:UserLogin&returnto=Sodium+bisulfite","/wiki/Sodium_bisulfite","/wiki/Talk:Sodium_bisulfite","#","/wiki/Sodium_bisulfite","/w/index.php?title=Sodium_bisulfite&action=edit","/w/index.php?title=Sodium_bisulfite&action=history","#","/w/index.php","//bits.wikimedia.org/static-1.21wmf11/skins/vector/images/search-ltr.png?303-4","/wiki/Main_Page","/wiki/Main_Page","/wiki/Portal:Contents","/wiki/Portal:Featured_content","/wiki/Portal:Current_events","/wiki/Special:Random","//donate.wikimedia.org/wiki/Special:FundraiserRedirector?utm_source=donate&utm_medium=sidebar&utm_campaign=C13_en.wikipedia.org&uselang=en","/wiki/Help:Contents","/wiki/Wikipedia:About","/wiki/Wikipedia:Community_portal","/wiki/Special:RecentChanges","/wiki/Wikipedia:Contact_us","/wiki/Special:WhatLinksHere/Sodium_bisulfite","/wiki/Special:RecentChangesLinked/Sodium_bisulfite","/wiki/Wikipedia:File_Upload_Wizard","/wiki/Special:SpecialPages","/w/index.php?title=Sodium_bisulfite&oldid=539809521","/w/index.php?title=Sodium_bisulfite&action=info","/w/index.php?title=Special:Cite&page=Sodium_bisulfite&id=539809521","/w/index.php?title=Special:Book&bookcmd=book_creator&referer=Sodium+bisulfite","/w/index.php?title=Special:Book&bookcmd=render_article&arttitle=Sodium+bisulfite&oldid=539809521&writer=rl","/w/index.php?title=Sodium_bisulfite&printable=yes","//ar.wikipedia.org/wiki/%D8%A8%D9%8A%D9%83%D8%A8%D8%B1%D9%8A%D8%AA%D9%8A%D8%AA_%D8%A7%D9%84%D8%B5%D9%88%D8%AF%D9%8A%D9%88%D9%85","//ca.wikipedia.org/wiki/Bisulfit_de_sodi","//cs.wikipedia.org/wiki/Hydrogensi%C5%99i%C4%8Ditan_sodn%C3%BD","//de.wikipedia.org/wiki/Natriumhydrogensulfit","//es.wikipedia.org/wiki/Bisulfito_s%C3%B3dico","//fa.wikipedia.org/wiki/%D8%B3%D8%AF%DB%8C%D9%85_%D8%A8%DB%8C%E2%80%8C%D8%B3%D9%88%D9%84%D9%81%DB%8C%D8%AA","//fr.wikipedia.org/wiki/Bisulfite_de_sodium","//it.wikipedia.org/wiki/Bisolfito_di_sodio","//he.wikipedia.org/wiki/%D7%91%D7%99%D7%A1%D7%95%D7%9C%D7%A4%D7%99%D7%98","//hu.wikipedia.org/wiki/N%C3%A1trium-hidrog%C3%A9nszulfit","//nl.wikipedia.org/wiki/Natriumwaterstofsulfiet","//ja.wikipedia.org/wiki/%E4%BA%9C%E7%A1%AB%E9%85%B8%E6%B0%B4%E7%B4%A0%E3%83%8A%E3%83%88%E3%83%AA%E3%82%A6%E3%83%A0","//pl.wikipedia.org/wiki/Wodorosiarczyn_sodu","//pt.wikipedia.org/wiki/Bissulfito_de_s%C3%B3dio","//ro.wikipedia.org/wiki/Bisulfit_de_sodiu","//ru.wikipedia.org/wiki/%D0%93%D0%B8%D0%B4%D1%80%D0%BE%D1%81%D1%83%D0%BB%D1%8C%D1%84%D0%B8%D1%82_%D0%BD%D0%B0%D1%82%D1%80%D0%B8%D1%8F","//fi.wikipedia.org/wiki/Natriumvetysulfiitti","//vi.wikipedia.org/wiki/Natri_bisunfit","//zh.wikipedia.org/wiki/%E4%BA%9A%E7%A1%AB%E9%85%B8%E6%B0%A2%E9%92%A0","//www.wikidata.org/wiki/Special:ItemByTitle/enwiki/Sodium bisulfite","//en.wikipedia.org/wiki/Wikipedia:Text_of_Creative_Commons_Attribution-ShareAlike_3.0_Unported_License","//creativecommons.org/licenses/by-sa/3.0/","//wikimediafoundation.org/wiki/Terms_of_Use","//www.wikimediafoundation.org/","//en.wikipedia.org/wiki/Wikipedia:Contact_us","//wikimediafoundation.org/wiki/Privacy_policy","/wiki/Wikipedia:About","/wiki/Wikipedia:General_disclaimer","http://en.m.wikipedia.org/wiki/Sodium_bisulfite","//wikimediafoundation.org/","//bits.wikimedia.org/images/wikimedia-button.png","//www.mediawiki.org/","//bits.wikimedia.org/static-1.21wmf11/skins/common/images/poweredby_mediawiki_88x31.png","//bits.wikimedia.org/en.wikipedia.org/load.php?debug=false&lang=en&modules=skins.vector&only=scripts&skin=vector&*","/w/index.php?title=MediaWiki:Gadget-ReferenceTooltips.js&action=raw&ctype=text/javascript&508635914","//bits.wikimedia.org/en.wikipedia.org/load.php?debug=false&lang=en&modules=site&only=scripts&skin=vector&*"],"instances":[],"pdf":[],"categories":["Sodium compounds","Bisulfites","Reagents for organic chemistry","Food additives"],"headings":["Uses in chemistry","Uses in food","Industrial uses","Bisulfite DNA sequencing","See also","References"],"image":["//upload.wikimedia.org/wikipedia/commons/thumb/9/98/Sodium_bisulfite.png/140px-Sodium_bisulfite.png","//upload.wikimedia.org/wikipedia/commons/thumb/e/e7/Sodium-bisulfite-3D-balls.png/160px-Sodium-bisulfite-3D-balls.png","//upload.wikimedia.org/wikipedia/en/thumb/f/fb/Yes_check.svg/7px-Yes_check.svg.png","//upload.wikimedia.org/wikipedia/en/thumb/f/fb/Yes_check.svg/7px-Yes_check.svg.png","//upload.wikimedia.org/wikipedia/en/thumb/f/fb/Yes_check.svg/7px-Yes_check.svg.png","//upload.wikimedia.org/wikipedia/commons/thumb/a/a2/X_mark.svg/7px-X_mark.svg.png","//upload.wikimedia.org/wikipedia/en/thumb/f/fb/Yes_check.svg/7px-Yes_check.svg.png","//upload.wikimedia.org/wikipedia/en/thumb/f/fb/Yes_check.svg/7px-Yes_check.svg.png","//upload.wikimedia.org/wikipedia/commons/thumb/6/6f/NFPA_704.svg/75px-NFPA_704.svg.png","//upload.wikimedia.org/wikipedia/commons/thumb/a/a2/X_mark.svg/14px-X_mark.svg.png","//upload.wikimedia.org/wikipedia/en/thumb/f/fb/Yes_check.svg/10px-Yes_check.svg.png","//upload.wikimedia.org/wikipedia/commons/thumb/a/a2/X_mark.svg/10px-X_mark.svg.png","//upload.wikimedia.org/wikipedia/commons/thumb/0/09/Bisulfitereaction.svg/389px-Bisulfitereaction.svg.png","//upload.wikimedia.org/wikipedia/commons/thumb/7/70/Bisulfite_adduct.svg/306px-Bisulfite_adduct.svg.png","//upload.wikimedia.org/wikipedia/commons/thumb/f/f1/Bisulfite-reaction.png/300px-Bisulfite-reaction.png","//bits.wikimedia.org/static-1.21wmf11/skins/common/images/magnify-clip.png","//bits.wikimedia.org/static-1.21wmf11/skins/vector/images/search-ltr.png?303-4","//bits.wikimedia.org/images/wikimedia-button.png","//bits.wikimedia.org/static-1.21wmf11/skins/common/images/poweredby_mediawiki_88x31.png"],"tags":[],"members":[],"related":["Sodium_sulfite","Sodium_metabisulfite","Potassium_bisulfite","Chemical_compound","Chemical_formula","Food_additive","E_number","Bisulfite","Sulfur_dioxide","Sodium_carbonate","Sodium_hypochlorite","Organic_chemistry","Adduct","Aldehyde","Ketone","Sulfonic_acid","Sodium_bicarbonate","Sodium_hydroxide","Sulfur_dioxide","Benzaldehyde","Tetralone","Citral","Pyruvic_acid","Glyoxal","Cyclohexanone","Diazald","Cycloheptanone","Reducing_agent","Organic_synthesis","Chlorine","Bromine","Iodine","Hypochlorite","Osmium_tetroxide","Chromium_trioxide","Potassium_permanganate","Bucherer_reaction","Aromatic","Hydroxyl","Amine","Reversible_reaction","Addition_reaction","Double_bond","Bucherer_carbazole_synthesis","Organic_reaction","Sodium_metabisulfite","Sodium_bisulfate","PH","Methylation","DNA","Cytosine","Uracil","5-methylcytosine","Polymerase_chain_reaction","DNA_sequencing","Sodium_metabisulfite","Calcium_bisulfite","Potassium_bisulfite","Croscarmellose_sodium","Sulfurous_acid"]}