{"cursor":"3641","size":15,"audio":[],"currentlang":"en","article":"{{chembox\n| Watchedfields = changed verifiedrevid = 447393311 Reference= [[Merck\n| Index]], 13th Edition Name = Methyl butyrate ImageFile1 =\n| Buttersauremethylester.svg ImageSize1 = 200px ImageName1 = Methyl butanoate\n| ImageFile2 = Methyl butyrate 3D.png ImageSize2 = 200px ImageName2 = Ball-and-\n| stick model IUPACName = Methyl butanoate OtherNames = Butyric acid methyl\n| ester Section1 = {{Chembox Identifiers CASNo_Ref = CASNo = 623-42-7 RTECS =\n| ET5500000 SMILES = CCCC(=O)OC\n  }}\n| Section2 = {{Chembox Properties C=5|H=10|O=2 Appearance = Colorless liquid\n| Density = 0.898 g/cm 3 Solubility = 1.5 g/100 mL (22 °C) MeltingPtC\n| = -95 BoilingPtC = 102 RefractIndex = 1.386\n  }}\n| Section7 = {{Chembox Hazards NFPA-H = 1 NFPA-F = 3 NFPA-R = FlashPt =\n  }} }}\n\n'Methyl butyrate', also known under the systematic name 'methyl butanoate', is\nthe methyl ester of butyric acid. Like most esters, it has a fruity odor, in\nthis case resembling apples or\npineapples. [http://www.thegoodscentscompany.com/data/rw1008721.html Methyl\nbutyrate], thegoodscentscompany.com At room temperature, it is a colorless\nliquid with low solubility in water, upon which it floats to form an oily layer.\nAlthough it is flammable, it has a relatively low vapor pressure (40 mmHg at ),\nso it can be safely handled at room temperature without special safety\nprecautions. Aldrich Chemicals Handbook, Sigma-Aldrich Company, Milwaukee,\n(2007)\n\nMethyl butyrate is present in small amounts in several plant products,\nespecially pineapple oil. It can be produced by distillation from\nessential oils of vegetable origin, but is also manufactured on a small scale\nfor use in\nperfumes [http://ec.europa.eu/enterprise/cosmetics/inci/fragalfm.htm Use of\nmethyl butyrate as an additive in perfume] and as a food flavoring.\n\nMethyl butyrate has been used in combustion studies as a surrogate fuel for the\nlarger fatty acid methyl esters found in biodiesel. [http://www.ingentaconn-\nect.com/content/pep/ije/2004/00000005/00000004/art00002 Methyl butyrate as a\ncomponent of biodiesel] However, studies have shown that, due to its short-\nchain length, methyl butyrate does not reproduce well the negative temperature\ncoefficient (NTC) behaviour and early CO 2 formation characteristics\nof real biodiesel fuels. Therefore, methyl butyrate is not a suitable surrogate\nfuel for biodiesel combustion studies.\n","linknr":155,"url":"Methyl_butyrate","recorded":1363148311,"links":["/w/index.php?title=Methyl_butyrate&action=edit","/w/index.php?title=Methyl_butyrate&action=edit","//en.wikipedia.org/apple-touch-icon.png","//bits.wikimedia.org/favicon/wikipedia.ico","/w/opensearch_desc.php","//en.wikipedia.org/w/api.php?action=rsd","//creativecommons.org/licenses/by-sa/3.0/","/w/index.php?title=Special:RecentChanges&feed=atom","//bits.wikimedia.org/en.wikipedia.org/load.php?debug=false&lang=en&modules=ext.gadget.DRN-wizard%2CReferenceTooltips%2Ccharinsert%2Cteahouse%7Cext.wikihiero%7Cmediawiki.legacy.commonPrint%2Cshared%7Cmw.PopUpMediaTransform%7Cskins.vector&only=styles&skin=vector&*","//bits.wikimedia.org/en.wikipedia.org/load.php?debug=false&lang=en&modules=site&only=styles&skin=vector&*","//bits.wikimedia.org/en.wikipedia.org/load.php?debug=false&lang=en&modules=startup&only=scripts&skin=vector&*","//bits.wikimedia.org/geoiplookup","//meta.wikimedia.org","#mw-head","#p-search","#cite_note-1","/wiki/File:Buttersauremethylester.svg","//upload.wikimedia.org/wikipedia/commons/thumb/1/15/Buttersauremethylester.svg/200px-Buttersauremethylester.svg.png","/wiki/File:Methyl_butyrate_3D.png","//upload.wikimedia.org/wikipedia/commons/thumb/4/47/Methyl_butyrate_3D.png/200px-Methyl_butyrate_3D.png","/wiki/International_Union_of_Pure_and_Applied_Chemistry_nomenclature","/wiki/CAS_registry_number","http://www.commonchemistry.org/ChemicalDetail.aspx?ref=623-42-7","//upload.wikimedia.org/wikipedia/en/thumb/f/fb/Yes_check.svg/7px-Yes_check.svg.png","/wiki/RTECS","/wiki/Jmol","http://chemapps.stolaf.edu/jmol/jmol.php?model=CCCC%28%3DO%29OC","/wiki/Simplified_molecular-input_line-entry_system","/wiki/Molecular_formula","/wiki/Molar_mass","/wiki/Density","/wiki/Melting_point","/wiki/Boiling_point","/wiki/Solubility","/wiki/Water","/wiki/Refractive_index","/wiki/NFPA_704","/wiki/File:NFPA_704.svg","//upload.wikimedia.org/wikipedia/commons/thumb/6/6f/NFPA_704.svg/75px-NFPA_704.svg.png","/wiki/Flash_point","//upload.wikimedia.org/wikipedia/en/thumb/f/fb/Yes_check.svg/14px-Yes_check.svg.png","//en.wikipedia.org/w/index.php?title=Special:ComparePages&rev1=447393311&page2=Methyl+butyrate","/wiki/Wikipedia:WikiProject_Chemicals/Chembox_validation","//upload.wikimedia.org/wikipedia/en/thumb/f/fb/Yes_check.svg/10px-Yes_check.svg.png","//upload.wikimedia.org/wikipedia/commons/thumb/a/a2/X_mark.svg/10px-X_mark.svg.png","/wiki/Standard_state","/wiki/Wikipedia:Chemical_infobox#References","/wiki/Methyl","/wiki/Ester","/wiki/Butyric_acid","/wiki/Odor","/wiki/Apple","/wiki/Pineapple","#cite_note-2","/wiki/Solubility","/wiki/Flammability","/wiki/Vapor_pressure","#cite_note-3","#cite_note-4","/wiki/Distillation","/wiki/Essential_oil","/wiki/Perfumes","#cite_note-5","/wiki/Flavoring","/wiki/Surrogate_fuel","/wiki/Biodiesel","#cite_note-6","/wiki/Wikipedia:Link_rot","/wiki/Negative_temperature_coefficient","/wiki/Biodiesel","#cite_note-7","/w/index.php?title=Methyl_butyrate&action=edit&section=1","#cite_ref-1","/wiki/Merck_Index","#cite_ref-2","http://www.thegoodscentscompany.com/data/rw1008721.html","#cite_ref-3","/wiki/Sigma-Aldrich","#cite_ref-4","/wiki/Digital_object_identifier","http://dx.doi.org/10.1021%2Fjf60168a018","#cite_ref-5","http://ec.europa.eu/enterprise/cosmetics/inci/fragalfm.htm","#cite_ref-6","http://www.ingentaconnect.com/content/pep/ije/2004/00000005/00000004/art00002","#cite_ref-7","/wiki/Digital_object_identifier","http://dx.doi.org/10.1016%2Fj.proci.2006.08.051","http://en.wikipedia.org/w/index.php?title=Methyl_butyrate&oldid=540608548","/wiki/Help:Categories","/wiki/Category:Methyl_esters","/wiki/Category:Butyrates","/wiki/Category:Perfume_ingredients","/wiki/Category:Flavors","/wiki/Category:Chemical_pages_needing_a_ChemSpiderID","/wiki/Category:Chemboxes_which_contain_changes_to_watched_fields","/wiki/Category:All_articles_with_dead_external_links","/wiki/Category:Articles_with_dead_external_links_from_January_2012","/w/index.php?title=Special:UserLogin&returnto=Methyl+butyrate&type=signup","/w/index.php?title=Special:UserLogin&returnto=Methyl+butyrate","/wiki/Methyl_butyrate","/wiki/Talk:Methyl_butyrate","#","/wiki/Methyl_butyrate","/w/index.php?title=Methyl_butyrate&action=edit","/w/index.php?title=Methyl_butyrate&action=history","#","/w/index.php","//bits.wikimedia.org/static-1.21wmf10/skins/vector/images/search-ltr.png?303-4","/wiki/Main_Page","/wiki/Main_Page","/wiki/Portal:Contents","/wiki/Portal:Featured_content","/wiki/Portal:Current_events","/wiki/Special:Random","//donate.wikimedia.org/wiki/Special:FundraiserRedirector?utm_source=donate&utm_medium=sidebar&utm_campaign=C13_en.wikipedia.org&uselang=en","/wiki/Help:Contents","/wiki/Wikipedia:About","/wiki/Wikipedia:Community_portal","/wiki/Special:RecentChanges","/wiki/Wikipedia:Contact_us","/wiki/Special:WhatLinksHere/Methyl_butyrate","/wiki/Special:RecentChangesLinked/Methyl_butyrate","/wiki/Wikipedia:File_Upload_Wizard","/wiki/Special:SpecialPages","/w/index.php?title=Methyl_butyrate&oldid=540608548","/w/index.php?title=Methyl_butyrate&action=info","/w/index.php?title=Special:Cite&page=Methyl_butyrate&id=540608548","/w/index.php?title=Special:Book&bookcmd=book_creator&referer=Methyl+butyrate","/w/index.php?title=Special:Book&bookcmd=render_article&arttitle=Methyl+butyrate&oldid=540608548&writer=rl","/w/index.php?title=Methyl_butyrate&printable=yes","//cs.wikipedia.org/wiki/Methylbutyr%C3%A1t","//de.wikipedia.org/wiki/Butters%C3%A4uremethylester","//fa.wikipedia.org/wiki/%D9%85%D8%AA%DB%8C%D9%84_%D8%A8%D9%88%D8%AA%DB%8C%D8%B1%D8%A7%D8%AA","//fr.wikipedia.org/wiki/Butanoate_de_m%C3%A9thyle","//nl.wikipedia.org/wiki/Methylbutanoaat","//ja.wikipedia.org/wiki/%E9%85%AA%E9%85%B8%E3%83%A1%E3%83%81%E3%83%AB","//pt.wikipedia.org/wiki/Butirato_de_metila","//zh.wikipedia.org/wiki/%E4%B8%81%E9%85%B8%E7%94%B2%E9%85%AF","//www.wikidata.org/wiki/Special:ItemByTitle/enwiki/Methyl butyrate","//en.wikipedia.org/wiki/Wikipedia:Text_of_Creative_Commons_Attribution-ShareAlike_3.0_Unported_License","//creativecommons.org/licenses/by-sa/3.0/","//wikimediafoundation.org/wiki/Terms_of_Use","//www.wikimediafoundation.org/","//en.wikipedia.org/wiki/Wikipedia:Contact_us","//wikimediafoundation.org/wiki/Privacy_policy","/wiki/Wikipedia:About","/wiki/Wikipedia:General_disclaimer","http://en.m.wikipedia.org/wiki/Methyl_butyrate","//wikimediafoundation.org/","//bits.wikimedia.org/images/wikimedia-button.png","//www.mediawiki.org/","//bits.wikimedia.org/static-1.21wmf10/skins/common/images/poweredby_mediawiki_88x31.png","//bits.wikimedia.org/en.wikipedia.org/load.php?debug=false&lang=en&modules=skins.vector&only=scripts&skin=vector&*","/w/index.php?title=MediaWiki:Gadget-ReferenceTooltips.js&action=raw&ctype=text/javascript&508635914","//bits.wikimedia.org/en.wikipedia.org/load.php?debug=false&lang=en&modules=site&only=scripts&skin=vector&*"],"instances":[],"pdf":[],"categories":["Methyl esters","Butyrates","Perfume ingredients","Flavors"],"headings":["References"],"image":["//upload.wikimedia.org/wikipedia/commons/thumb/1/15/Buttersauremethylester.svg/200px-Buttersauremethylester.svg.png","//upload.wikimedia.org/wikipedia/commons/thumb/4/47/Methyl_butyrate_3D.png/200px-Methyl_butyrate_3D.png","//upload.wikimedia.org/wikipedia/en/thumb/f/fb/Yes_check.svg/7px-Yes_check.svg.png","//upload.wikimedia.org/wikipedia/commons/thumb/6/6f/NFPA_704.svg/75px-NFPA_704.svg.png","//upload.wikimedia.org/wikipedia/en/thumb/f/fb/Yes_check.svg/14px-Yes_check.svg.png","//upload.wikimedia.org/wikipedia/en/thumb/f/fb/Yes_check.svg/10px-Yes_check.svg.png","//upload.wikimedia.org/wikipedia/commons/thumb/a/a2/X_mark.svg/10px-X_mark.svg.png","//bits.wikimedia.org/static-1.21wmf10/skins/vector/images/search-ltr.png?303-4","//bits.wikimedia.org/images/wikimedia-button.png","//bits.wikimedia.org/static-1.21wmf10/skins/common/images/poweredby_mediawiki_88x31.png"],"tags":[],"members":[],"related":["Methyl","Ester","Butyric_acid","Odor","Apple","Pineapple","Solubility","Flammability","Vapor_pressure","Sigma-Aldrich","Distillation","Essential_oil","Perfumes","Flavoring","Surrogate_fuel","Biodiesel","Negative_temperature_coefficient","Biodiesel"]}