{"cursor":"3955","size":15,"audio":[],"currentlang":"en","article":"{{chembox\n| Verifiedfields = changed verifiedrevid = 406858995 Name = 'Methylacetylene'\n| ImageFile = propyne.png ImageSize = 120px ImageName = Methylacetylene\n| ImageFile1 = Propyne3D.png ImageSize1 = 180px IUPACName = Propyne OtherNames =\n| Methylacetylene Methyl acetylene Section1 = {{Chembox Identifiers CASNo =\n| 74-99-7 CASNo_Ref = ChEMBL_Ref = ChEMBL = 116902 SMILES = CC#C\n  }}\n| Section2 = {{Chembox Properties Formula = C 3H 4 MolarMass\n| = 40.0639 g/mol Density = 0.53 g/cm³ MeltingPtC = -102.7 BoilingPtC = -23.2\n  }} }}\n\n'Methylacetylene' ('propyne') is an alkyne with the chemical formula\nH 3C≡CH. It was a component of MAPP gas along with its isomer\npropadiene (allene), which was commonly used in gas welding. Unlike acetylene,\nmethylacetylene could be safely condensed. Peter Pässler,\nWerner Hefner, Klaus Buckl, Helmut Meinass, Andreas Meiswinkel, Hans-Jũrgen\nWernicke, Günter Ebersberg, Richard Müller, Jürgen Bässler, Hartmut Behringer,\nDieter Mayer, \"Acetylene\" in Ullmann's Encyclopedia of Industrial Chemistry Wiley-\nVCH, Weinheim, 2007. 10.1002/14356007.a01 097.pub2\n","linknr":199,"url":"Propyne","recorded":1364047273,"links":["/w/index.php?title=Methylacetylene&action=edit","/w/index.php?title=Methylacetylene&action=edit","//en.wikipedia.org/apple-touch-icon.png","//bits.wikimedia.org/favicon/wikipedia.ico","/w/opensearch_desc.php","//en.wikipedia.org/w/api.php?action=rsd","//creativecommons.org/licenses/by-sa/3.0/","/w/index.php?title=Special:RecentChanges&feed=atom","/wiki/Methylacetylene","//bits.wikimedia.org/en.wikipedia.org/load.php?debug=false&lang=en&modules=ext.gadget.DRN-wizard%2CReferenceTooltips%2Ccharinsert%2Cteahouse%7Cext.wikihiero%7Cmediawiki.legacy.commonPrint%2Cshared%7Cmw.PopUpMediaTransform%7Cskins.vector&only=styles&skin=vector&*","//bits.wikimedia.org/en.wikipedia.org/load.php?debug=false&lang=en&modules=site&only=styles&skin=vector&*","//bits.wikimedia.org/en.wikipedia.org/load.php?debug=false&lang=en&modules=startup&only=scripts&skin=vector&*","//bits.wikimedia.org/geoiplookup","//meta.wikimedia.org","/w/index.php?title=Propyne&redirect=no","#mw-head","#p-search","/wiki/File:Propyne.png","//upload.wikimedia.org/wikipedia/commons/thumb/0/03/Propyne.png/120px-Propyne.png","/wiki/File:Propyne3D.png","//upload.wikimedia.org/wikipedia/commons/thumb/4/47/Propyne3D.png/180px-Propyne3D.png","/wiki/International_Union_of_Pure_and_Applied_Chemistry_nomenclature","/wiki/CAS_registry_number","http://www.commonchemistry.org/ChemicalDetail.aspx?ref=74-99-7","//upload.wikimedia.org/wikipedia/en/thumb/f/fb/Yes_check.svg/7px-Yes_check.svg.png","/wiki/ChEMBL","https://www.ebi.ac.uk/chembldb/index.php/compound/inspect/CHEMBL116902","//upload.wikimedia.org/wikipedia/commons/thumb/a/a2/X_mark.svg/7px-X_mark.svg.png","/wiki/Jmol","http://chemapps.stolaf.edu/jmol/jmol.php?model=CC%23C","/wiki/Simplified_molecular-input_line-entry_system","/wiki/Chemical_formula","/wiki/Molar_mass","/wiki/Density","/wiki/Melting_point","/wiki/Boiling_point","//upload.wikimedia.org/wikipedia/commons/thumb/a/a2/X_mark.svg/14px-X_mark.svg.png","//en.wikipedia.org/w/index.php?title=Special:ComparePages&rev1=406858995&page2=Methylacetylene","/wiki/Wikipedia:WikiProject_Chemicals/Chembox_validation","//upload.wikimedia.org/wikipedia/en/thumb/f/fb/Yes_check.svg/10px-Yes_check.svg.png","//upload.wikimedia.org/wikipedia/commons/thumb/a/a2/X_mark.svg/10px-X_mark.svg.png","/wiki/Standard_state","/wiki/Wikipedia:Chemical_infobox#References","/wiki/Alkyne","/wiki/Chemical_formula","/wiki/Carbon","/wiki/Hydrogen","/wiki/MAPP_gas","/wiki/Isomer","/wiki/Propadiene","/wiki/Gas_welding","/wiki/Acetylene","/wiki/Condensation","#cite_note-Ullmann-1","#Production_and_equilibrium_with_propadiene","#Use_as_a_rocket_fuel","#Organic_chemistry","#External_links","#References","/w/index.php?title=Methylacetylene&action=edit&section=1","/wiki/Propadiene","/wiki/Cracking_(chemistry)","/wiki/Propane","/wiki/Propene","/wiki/Feedstock","/wiki/Chemical_industry","#cite_note-Ullmann-1","/wiki/Ziegler-Natta_catalyst","/wiki/Polymerization","/w/index.php?title=Methylacetylene&action=edit&section=2","/wiki/Hydrocarbons","/wiki/Liquid_oxygen","/wiki/Liquid_rocket_propellant","/wiki/Monomethylhydrazine","/wiki/Nitrogen_tetroxide","/wiki/Rocket_fuel","/wiki/Low_Earth_orbit","/wiki/Specific_impulse","/wiki/Second","/wiki/Density","/wiki/Power_density","/wiki/Boiling_point","/wiki/Fuel","/wiki/Cryogenics","/w/index.php?title=Methylacetylene&action=edit&section=3","/wiki/Organic_synthesis","/wiki/N-Butyllithium","/w/index.php?title=Propynyllithium&action=edit&redlink=1","/wiki/Nucleophilic","/wiki/Carbonyl","/wiki/Alcohol","/wiki/Ester","#cite_note-2","#cite_note-3","/w/index.php?title=Methylacetylene&action=edit&section=4","http://webbook.nist.gov/cgi/cbook.cgi?ID=C74997","/w/index.php?title=Methylacetylene&action=edit&section=5","#cite_ref-Ullmann_1-0","#cite_ref-Ullmann_1-1","#cite_ref-2","http://www.orgsyn.org/orgsyn/orgsyn/prepContent.asp?prep=CV7P0226","/wiki/Organic_Syntheses","http://www.orgsyn.org/orgsyn/orgsyn/prepContent.asp?prep=CV7P0226","#cite_ref-3","http://worldwide.espacenet.com/textdoc?DB=EPODOC&IDX=US5744071","http://www.la.dlr.de/ra/sart/publications/pdf/esa02-2004.pdf","http://www.novachem.com/ProductServices/docs/CrudePropylene_MSDS_EN.pdf","/wiki/Template:Alkynes","/w/index.php?title=Template_talk:Alkynes&action=edit&redlink=1","//en.wikipedia.org/w/index.php?title=Template:Alkynes&action=edit","/wiki/Alkyne","/wiki/Acetylene","/wiki/Butyne","/wiki/Pentyne","/wiki/Hexyne","/w/index.php?title=Heptyne&action=edit&redlink=1","/w/index.php?title=Octyne&action=edit&redlink=1","/w/index.php?title=Nonyne&action=edit&redlink=1","/wiki/Decyne","/w/index.php?title=Undecyne&action=edit&redlink=1","http://en.wikipedia.org/w/index.php?title=Methylacetylene&oldid=546349325","/wiki/Help:Categories","/wiki/Category:Alkynes","/wiki/Category:Fuel_gas","/wiki/Category:Rocket_fuels","/wiki/Category:Chemical_pages_needing_a_ChemSpiderID","/wiki/Category:Articles_with_changed_EBI_identifier","/wiki/Category:Chemboxes_which_contain_changes_to_verified_fields","/w/index.php?title=Special:UserLogin&returnto=Methylacetylene&type=signup","/w/index.php?title=Special:UserLogin&returnto=Methylacetylene","/wiki/Methylacetylene","/wiki/Talk:Methylacetylene","#","/wiki/Methylacetylene","/w/index.php?title=Methylacetylene&action=edit","/w/index.php?title=Methylacetylene&action=history","#","/w/index.php","//bits.wikimedia.org/static-1.21wmf11/skins/vector/images/search-ltr.png?303-4","/wiki/Main_Page","/wiki/Main_Page","/wiki/Portal:Contents","/wiki/Portal:Featured_content","/wiki/Portal:Current_events","/wiki/Special:Random","//donate.wikimedia.org/wiki/Special:FundraiserRedirector?utm_source=donate&utm_medium=sidebar&utm_campaign=C13_en.wikipedia.org&uselang=en","/wiki/Help:Contents","/wiki/Wikipedia:About","/wiki/Wikipedia:Community_portal","/wiki/Special:RecentChanges","/wiki/Wikipedia:Contact_us","/wiki/Special:WhatLinksHere/Methylacetylene","/wiki/Special:RecentChangesLinked/Methylacetylene","/wiki/Wikipedia:File_Upload_Wizard","/wiki/Special:SpecialPages","/w/index.php?title=Methylacetylene&oldid=546349325","/w/index.php?title=Methylacetylene&action=info","/w/index.php?title=Special:Cite&page=Methylacetylene&id=546349325","/w/index.php?title=Special:Book&bookcmd=book_creator&referer=Methylacetylene","/w/index.php?title=Special:Book&bookcmd=render_article&arttitle=Methylacetylene&oldid=546349325&writer=rl","/w/index.php?title=Methylacetylene&printable=yes","//az.wikipedia.org/wiki/Propin","//ca.wikipedia.org/wiki/Metilacetil%C3%A8","//cs.wikipedia.org/wiki/Propyn","//de.wikipedia.org/wiki/Propin","//el.wikipedia.org/wiki/%CE%A0%CF%81%CE%BF%CF%80%CE%AF%CE%BD%CE%B9%CE%BF","//es.wikipedia.org/wiki/Propino","//fa.wikipedia.org/wiki/%D9%85%D8%AA%DB%8C%D9%84_%D8%A7%D8%B3%D8%AA%DB%8C%D9%84%D9%86","//fr.wikipedia.org/wiki/Propyne","//hr.wikipedia.org/wiki/Propin","//it.wikipedia.org/wiki/Propino","//la.wikipedia.org/wiki/Propinum","//nl.wikipedia.org/wiki/Propyn","//ja.wikipedia.org/wiki/%E3%83%97%E3%83%AD%E3%83%94%E3%83%B3","//no.wikipedia.org/wiki/Metylacetylen","//nn.wikipedia.org/wiki/Metylacetylen","//pl.wikipedia.org/wiki/Propyn","//pt.wikipedia.org/wiki/Metilacetileno","//ru.wikipedia.org/wiki/%D0%9F%D1%80%D0%BE%D0%BF%D0%B8%D0%BD","//fi.wikipedia.org/wiki/Propyyni","//sv.wikipedia.org/wiki/Propyn","//zh-yue.wikipedia.org/wiki/%E4%B8%99%E7%82%94","//zh.wikipedia.org/wiki/%E4%B8%99%E7%82%94","//www.wikidata.org/wiki/Special:ItemByTitle/enwiki/Methylacetylene","//en.wikipedia.org/wiki/Wikipedia:Text_of_Creative_Commons_Attribution-ShareAlike_3.0_Unported_License","//creativecommons.org/licenses/by-sa/3.0/","//wikimediafoundation.org/wiki/Terms_of_Use","//www.wikimediafoundation.org/","//en.wikipedia.org/wiki/Wikipedia:Contact_us","//wikimediafoundation.org/wiki/Privacy_policy","/wiki/Wikipedia:About","/wiki/Wikipedia:General_disclaimer","http://en.m.wikipedia.org/wiki/Methylacetylene","//wikimediafoundation.org/","//bits.wikimedia.org/images/wikimedia-button.png","//www.mediawiki.org/","//bits.wikimedia.org/static-1.21wmf11/skins/common/images/poweredby_mediawiki_88x31.png","//bits.wikimedia.org/en.wikipedia.org/load.php?debug=false&lang=en&modules=skins.vector&only=scripts&skin=vector&*","/w/index.php?title=MediaWiki:Gadget-ReferenceTooltips.js&action=raw&ctype=text/javascript&508635914","//bits.wikimedia.org/en.wikipedia.org/load.php?debug=false&lang=en&modules=site&only=scripts&skin=vector&*"],"instances":["chemistry"],"pdf":["http://www.la.dlr.de/ra/sart/publications/pdf/esa02-2004.pdf","http://www.novachem.com/ProductServices/docs/CrudePropylene_MSDS_EN.pdf"],"categories":["Alkynes","Fuel gas","Rocket fuels"],"headings":["Production and equilibrium with propadiene","Use as a rocket fuel","Organic chemistry","External links","References"],"image":["//upload.wikimedia.org/wikipedia/commons/thumb/0/03/Propyne.png/120px-Propyne.png","//upload.wikimedia.org/wikipedia/commons/thumb/4/47/Propyne3D.png/180px-Propyne3D.png","//upload.wikimedia.org/wikipedia/en/thumb/f/fb/Yes_check.svg/7px-Yes_check.svg.png","//upload.wikimedia.org/wikipedia/commons/thumb/a/a2/X_mark.svg/7px-X_mark.svg.png","//upload.wikimedia.org/wikipedia/commons/thumb/a/a2/X_mark.svg/14px-X_mark.svg.png","//upload.wikimedia.org/wikipedia/en/thumb/f/fb/Yes_check.svg/10px-Yes_check.svg.png","//upload.wikimedia.org/wikipedia/commons/thumb/a/a2/X_mark.svg/10px-X_mark.svg.png","//bits.wikimedia.org/static-1.21wmf11/skins/vector/images/search-ltr.png?303-4","//bits.wikimedia.org/images/wikimedia-button.png","//bits.wikimedia.org/static-1.21wmf11/skins/common/images/poweredby_mediawiki_88x31.png"],"tags":[["cracking","chemistry"]],"members":["cracking"],"related":["Alkyne","Chemical_formula","Hydrogen","MAPP_gas","Isomer","Propadiene","Gas_welding","Acetylene","Condensation","Propadiene","Cracking_(chemistry)","Propane","Propene","Feedstock","Chemical_industry","Ziegler-Natta_catalyst","Polymerization","Hydrocarbons","Liquid_oxygen","Liquid_rocket_propellant","Monomethylhydrazine","Nitrogen_tetroxide","Rocket_fuel","Low_Earth_orbit","Specific_impulse","Second","Density","Power_density","Boiling_point","Fuel","Cryogenics","Organic_synthesis","N-Butyllithium","Propynyllithium","Nucleophilic","Carbonyl","Alcohol","Ester"]}