{"cursor":"4238","size":15,"audio":[],"currentlang":"en","article":"{{Chembox\n| Verifiedfields = changed verifiedrevid = 477205091 ImageFile2 = 1,3-Butanediol-3D-\n| balls.png ImageFile2_Ref = ImageSize2 = 100 ImageFile2_Name = Ball and stick\n| model of 1,3-butanediol (S) ImageFileL1 = 1,3-Butanediol.png ImageFileL1_Ref =\n| ImageFileL1_Name = Skeletal formula of 1,3-butanediol ImageFileR1 = 1,3-Butanediol-3D-\n| spacefill.png ImageFileR1_Ref = ImageFileR1_Name = Spacefill model of 1,3-\n| butanediol (S) IUPACName = Butane-1,3-diol Section1 = {{Chembox\n| Identifiers CASNo = 107-88-0 CASNo_Ref = CASNo1 = 6290-03-5 CASNo1_Comment =\n| (R) CASNo2 = 24621-61-2 CASNo2_Comment = (S)\n| PubChem = 7896 PubChem_Ref = PubChem1 = 637497 PubChem1_Ref = PubChem1_Comment\n| = (R) PubChem2 = 446973 PubChem2_Ref = PubChem2_Comment =\n| (S) ChemSpiderID = 7608 ChemSpiderID_Ref = ChemSpiderID1 =\n| 553103 ChemSpiderID1_Ref = ChemSpiderID1_Comment = (R)\n| ChemSpiderID2 = 394191 ChemSpiderID2_Ref = ChemSpiderID2_Comment =\n| (S) UNII = 3XUS85K0RA UNII_Ref = EINECS = 203-529-7 DrugBank =\n| DB02202 DrugBank_Ref = MeSHName = 1,3-Butylene+glycol ChEBI = 52683 ChEBI_Ref\n| = ChEMBL = 1231503 ChEMBL_Ref = RTECS = EK0440000 Beilstein = 1731276\n1718944 (R) 1718943 (S)\n|  Gmelin = 2409\n2493173 (R) 1994384 (S)\n|  SMILES = CC(O)CCO StdInChI = 1S/C4H10O2/c1-4(6)2-3-5/h4-6H,2-3H2,1H3\n|  StdInChI_Ref = StdInChIKey = PUPZLCDOIYMWBV-UHFFFAOYSA-N StdInChIKey_Ref =\n}}\n| Section2 = {{Chembox Properties C = 4 H = 10 O = 2 ExactMass = 90.068079564 g\n| mol −1 Appearance = Colourless liquid Density = 1.0053 g\n| cm −3 MeltingPtCL = −50 BoilingPtKL = 477 BoilingPtKH = 483\n| Solubility = 1 kg dm −3 LogP = −0.74 VaporPressure = 8 Pa (at 20 °C)\n| RefractIndex = 1.44\n}}\n| Section3 = {{Chembox Thermochemistry DeltaHf = −501 kJ mol −1\n| DeltaHc = −2.5022 MJ mol −1 Entropy = 227.2 J K −1\n| mol −1\n}}\n| Section4 = {{Chembox Hazards GHSPictograms = GHSSignalWord = 'WARNING'\n| HPhrases = PPhrases = EUClass = RPhrases = SPhrases = , NFPA-H = 1 NFPA-F = 1\n| NFPA-R = 0 FlashPt = 108 °C Autoignition = 394 °C\n}}\n| Section5 = {{Chembox Related Function = butanediol OtherFunctn = 1,2-\n| Butanediol\n1,4-Butanediol 2,3-Butanediol\n|  OtherCpds = 2-Methylpentane\n}} }}\n\n'1,3-Butanediol' is an organic chemical, an alcohol. It is commonly used as a\nsolvent for food flavouring agents and is a co-monomer used in certain\npolyurethane and polyester resins. It is one of four stable isomers of\nbutanediol. In biology, 1,3-butanediol is used as a hypoglycaemic agent. 1,3-\nButanediol can be converted into β-hydroxybutyrate and serve as a substrate for\nbrain\nmetabolism.[http://www.nature.com/jcbfm/journal/v7/n6/abs/jcbfm1987136a.html]\n","linknr":193,"url":"1,3-Butanediol","recorded":1364141275,"links":["/w/index.php?title=1,3-Butanediol&action=edit","/w/index.php?title=1,3-Butanediol&action=edit","//en.wikipedia.org/apple-touch-icon.png","//bits.wikimedia.org/favicon/wikipedia.ico","/w/opensearch_desc.php","//en.wikipedia.org/w/api.php?action=rsd","//creativecommons.org/licenses/by-sa/3.0/","/w/index.php?title=Special:RecentChanges&feed=atom","//bits.wikimedia.org/en.wikipedia.org/load.php?debug=false&lang=en&modules=ext.gadget.DRN-wizard%2CReferenceTooltips%2Ccharinsert%2Cteahouse%7Cext.wikihiero%7Cmediawiki.legacy.commonPrint%2Cshared%7Cmw.PopUpMediaTransform%7Cskins.vector&only=styles&skin=vector&*","//bits.wikimedia.org/en.wikipedia.org/load.php?debug=false&lang=en&modules=site&only=styles&skin=vector&*","//bits.wikimedia.org/en.wikipedia.org/load.php?debug=false&lang=en&modules=startup&only=scripts&skin=vector&*","//bits.wikimedia.org/geoiplookup","//meta.wikimedia.org","#mw-head","#p-search","/wiki/File:1,3-Butanediol.png","//upload.wikimedia.org/wikipedia/commons/thumb/4/43/1%2C3-Butanediol.png/100px-1%2C3-Butanediol.png","/wiki/File:1,3-Butanediol-3D-spacefill.png","//upload.wikimedia.org/wikipedia/commons/thumb/3/3c/1%2C3-Butanediol-3D-spacefill.png/100px-1%2C3-Butanediol-3D-spacefill.png","/wiki/File:1,3-Butanediol-3D-balls.png","//upload.wikimedia.org/wikipedia/commons/thumb/0/0e/1%2C3-Butanediol-3D-balls.png/100px-1%2C3-Butanediol-3D-balls.png","/wiki/International_Union_of_Pure_and_Applied_Chemistry_nomenclature","#cite_note-1","/wiki/CAS_registry_number","http://www.commonchemistry.org/ChemicalDetail.aspx?ref=107-88-0","//upload.wikimedia.org/wikipedia/en/thumb/f/fb/Yes_check.svg/7px-Yes_check.svg.png","http://www.commonchemistry.org/ChemicalDetail.aspx?ref=6290-03-5","http://www.commonchemistry.org/ChemicalDetail.aspx?ref=24621-61-2","/wiki/PubChem","http://pubchem.ncbi.nlm.nih.gov/summary/summary.cgi?cid=7896","http://pubchem.ncbi.nlm.nih.gov/summary/summary.cgi?cid=637497","http://pubchem.ncbi.nlm.nih.gov/summary/summary.cgi?cid=446973","/wiki/ChemSpider","http://www.chemspider.com/7608","//upload.wikimedia.org/wikipedia/en/thumb/f/fb/Yes_check.svg/7px-Yes_check.svg.png","http://www.chemspider.com/553103","//upload.wikimedia.org/wikipedia/en/thumb/f/fb/Yes_check.svg/7px-Yes_check.svg.png","http://www.chemspider.com/394191","//upload.wikimedia.org/wikipedia/en/thumb/f/fb/Yes_check.svg/7px-Yes_check.svg.png","/wiki/Unique_Ingredient_Identifier","http://fdasis.nlm.nih.gov/srs/srsdirect.jsp?regno=3XUS85K0RA","//upload.wikimedia.org/wikipedia/en/thumb/f/fb/Yes_check.svg/7px-Yes_check.svg.png","/wiki/EC_number_(chemistry)","http://esis.jrc.ec.europa.eu/lib/einecs_IS_reponse.php?genre=ECNO&entree=203-529-7","/wiki/DrugBank","http://www.drugbank.ca/drugs/DB02202","/wiki/Medical_Subject_Headings","http://www.nlm.nih.gov/cgi/mesh/2007/MB_cgi?mode=&term=1,3-Butylene+glycol","/wiki/ChEBI","https://www.ebi.ac.uk/chebi/searchId.do?chebiId=52683","//upload.wikimedia.org/wikipedia/commons/thumb/a/a2/X_mark.svg/7px-X_mark.svg.png","/wiki/ChEMBL","https://www.ebi.ac.uk/chembldb/index.php/compound/inspect/CHEMBL1231503","//upload.wikimedia.org/wikipedia/commons/thumb/a/a2/X_mark.svg/7px-X_mark.svg.png","/wiki/RTECS","/wiki/Beilstein_database","/wiki/Gmelin_database","/wiki/Jmol","http://chemapps.stolaf.edu/jmol/jmol.php?model=CC%28O%29CCO","/wiki/Simplified_molecular-input_line-entry_system","/wiki/International_Chemical_Identifier","//upload.wikimedia.org/wikipedia/commons/thumb/a/a2/X_mark.svg/7px-X_mark.svg.png","//upload.wikimedia.org/wikipedia/commons/thumb/a/a2/X_mark.svg/7px-X_mark.svg.png","/wiki/Molecular_formula","/wiki/Molar_mass","/wiki/Density","/wiki/Melting_point","/wiki/Boiling_point","/wiki/Solubility","/wiki/Water","/wiki/Partition_coefficient","/wiki/Vapor_pressure","/wiki/Refractive_index","/wiki/Standard_enthalpy_change_of_formation","/wiki/Standard_enthalpy_change_of_combustion","/wiki/Standard_molar_entropy","/wiki/GHS_hazard_pictograms","/wiki/File:GHS-pictogram-exclam.svg","//upload.wikimedia.org/wikipedia/commons/thumb/c/c3/GHS-pictogram-exclam.svg/50px-GHS-pictogram-exclam.svg.png","/wiki/Globally_Harmonized_System_of_Classification_and_Labelling_of_Chemicals","/wiki/GHS_hazard_statement","/wiki/GHS_precautionary_statements","/wiki/Dangerous_Substances_Directive_(67/548/EEC)","/wiki/File:Hazard_X.svg","//upload.wikimedia.org/wikipedia/commons/thumb/e/ed/Hazard_X.svg/40px-Hazard_X.svg.png","/wiki/List_of_R-phrases","/wiki/R36/37/38:_Irritating_to_eyes,_respiratory_system_and_skin","/wiki/List_of_S-phrases","/wiki/S26:_In_case_of_contact_with_eyes,_rinse_immediately_with_plenty_of_water_and_seek_medical_advice","/wiki/S36:_Wear_suitable_protective_clothing","/wiki/NFPA_704","/wiki/File:NFPA_704.svg","//upload.wikimedia.org/wikipedia/commons/thumb/6/6f/NFPA_704.svg/75px-NFPA_704.svg.png","/wiki/Flash_point","/wiki/Autoignition_temperature","/wiki/1,2-Butanediol","/wiki/1,4-Butanediol","/wiki/2,3-Butanediol","/wiki/2-Methylpentane","//upload.wikimedia.org/wikipedia/commons/thumb/a/a2/X_mark.svg/14px-X_mark.svg.png","//en.wikipedia.org/w/index.php?title=Special:ComparePages&rev1=477205091&page2=1%2C3-Butanediol","/wiki/Wikipedia:WikiProject_Chemicals/Chembox_validation","//upload.wikimedia.org/wikipedia/en/thumb/f/fb/Yes_check.svg/10px-Yes_check.svg.png","//upload.wikimedia.org/wikipedia/commons/thumb/a/a2/X_mark.svg/10px-X_mark.svg.png","/wiki/Standard_state","/wiki/Wikipedia:Chemical_infobox#References","/wiki/Organic_chemistry","/wiki/Alcohol","/wiki/Solvent","/wiki/Flavor","/wiki/Monomer","/wiki/Polyurethane","/wiki/Polyester","/wiki/Isomer","/wiki/Butanediol","/wiki/Biology","/wiki/Hypoglycaemia","http://www.nature.com/jcbfm/journal/v7/n6/abs/jcbfm1987136a.html","/w/index.php?title=1,3-Butanediol&action=edit&section=1","#cite_ref-1","http://pubchem.ncbi.nlm.nih.gov/summary/summary.cgi?cid=7896","http://pubchem.ncbi.nlm.nih.gov/summary/summary.cgi?cid=7896","/wiki/File:Alcohol_general.svg","//upload.wikimedia.org/wikipedia/commons/thumb/d/d4/Alcohol_general.svg/40px-Alcohol_general.svg.png","/wiki/Alcohol","/wiki/Wikipedia:Stub","//en.wikipedia.org/w/index.php?title=1,3-Butanediol&action=edit","/wiki/Template:Alcohol-stub","/wiki/Template_talk:Alcohol-stub","//en.wikipedia.org/w/index.php?title=Template:Alcohol-stub&action=edit","http://en.wikipedia.org/w/index.php?title=1,3-Butanediol&oldid=546725312","/wiki/Help:Categories","/wiki/Category:Diols","/wiki/Category:Alcohol_stubs","/wiki/Category:Articles_with_changed_EBI_identifier","/wiki/Category:Chemboxes_which_contain_changes_to_verified_fields","/w/index.php?title=Special:UserLogin&returnto=1%2C3-Butanediol&type=signup","/w/index.php?title=Special:UserLogin&returnto=1%2C3-Butanediol","/wiki/1,3-Butanediol","/wiki/Talk:1,3-Butanediol","#","/wiki/1,3-Butanediol","/w/index.php?title=1,3-Butanediol&action=edit","/w/index.php?title=1,3-Butanediol&action=history","#","/w/index.php","//bits.wikimedia.org/static-1.21wmf11/skins/vector/images/search-ltr.png?303-4","/wiki/Main_Page","/wiki/Main_Page","/wiki/Portal:Contents","/wiki/Portal:Featured_content","/wiki/Portal:Current_events","/wiki/Special:Random","//donate.wikimedia.org/wiki/Special:FundraiserRedirector?utm_source=donate&utm_medium=sidebar&utm_campaign=C13_en.wikipedia.org&uselang=en","/wiki/Help:Contents","/wiki/Wikipedia:About","/wiki/Wikipedia:Community_portal","/wiki/Special:RecentChanges","/wiki/Wikipedia:Contact_us","/wiki/Special:WhatLinksHere/1,3-Butanediol","/wiki/Special:RecentChangesLinked/1,3-Butanediol","/wiki/Wikipedia:File_Upload_Wizard","/wiki/Special:SpecialPages","/w/index.php?title=1,3-Butanediol&oldid=546725312","/w/index.php?title=1,3-Butanediol&action=info","/w/index.php?title=Special:Cite&page=1%2C3-Butanediol&id=546725312","/w/index.php?title=Special:Book&bookcmd=book_creator&referer=1%2C3-Butanediol","/w/index.php?title=Special:Book&bookcmd=render_article&arttitle=1%2C3-Butanediol&oldid=546725312&writer=rl","/w/index.php?title=1,3-Butanediol&printable=yes","//de.wikipedia.org/wiki/1,3-Butandiol","//es.wikipedia.org/wiki/1,3-butanodiol","//fa.wikipedia.org/wiki/%DB%B3%D8%8C%DB%B1-%D8%A8%D9%88%D8%AA%D8%A7%D9%86%E2%80%8C%D8%AF%DB%8C%D9%88%D9%84","//fr.wikipedia.org/wiki/Butane-1,3-diol","//nl.wikipedia.org/wiki/1,3-butaandiol","//ja.wikipedia.org/wiki/1,3-%E3%83%96%E3%82%BF%E3%83%B3%E3%82%B8%E3%82%AA%E3%83%BC%E3%83%AB","//fi.wikipedia.org/wiki/1,3-butaanidioli","//zh.wikipedia.org/wiki/1,3-%E4%B8%81%E4%BA%8C%E9%86%87","//www.wikidata.org/wiki/Special:ItemByTitle/enwiki/1,3-Butanediol","//en.wikipedia.org/wiki/Wikipedia:Text_of_Creative_Commons_Attribution-ShareAlike_3.0_Unported_License","//creativecommons.org/licenses/by-sa/3.0/","//wikimediafoundation.org/wiki/Terms_of_Use","//www.wikimediafoundation.org/","//en.wikipedia.org/wiki/Wikipedia:Contact_us","//wikimediafoundation.org/wiki/Privacy_policy","/wiki/Wikipedia:About","/wiki/Wikipedia:General_disclaimer","http://en.m.wikipedia.org/wiki/1,3-Butanediol","//wikimediafoundation.org/","//bits.wikimedia.org/images/wikimedia-button.png","//www.mediawiki.org/","//bits.wikimedia.org/static-1.21wmf11/skins/common/images/poweredby_mediawiki_88x31.png","//bits.wikimedia.org/en.wikipedia.org/load.php?debug=false&lang=en&modules=skins.vector&only=scripts&skin=vector&*","/w/index.php?title=MediaWiki:Gadget-ReferenceTooltips.js&action=raw&ctype=text/javascript&508635914","//bits.wikimedia.org/en.wikipedia.org/load.php?debug=false&lang=en&modules=site&only=scripts&skin=vector&*"],"instances":[],"pdf":[],"categories":["Diols"],"headings":["References"],"image":["//upload.wikimedia.org/wikipedia/commons/thumb/4/43/1%2C3-Butanediol.png/100px-1%2C3-Butanediol.png","//upload.wikimedia.org/wikipedia/commons/thumb/3/3c/1%2C3-Butanediol-3D-spacefill.png/100px-1%2C3-Butanediol-3D-spacefill.png","//upload.wikimedia.org/wikipedia/commons/thumb/0/0e/1%2C3-Butanediol-3D-balls.png/100px-1%2C3-Butanediol-3D-balls.png","//upload.wikimedia.org/wikipedia/en/thumb/f/fb/Yes_check.svg/7px-Yes_check.svg.png","//upload.wikimedia.org/wikipedia/en/thumb/f/fb/Yes_check.svg/7px-Yes_check.svg.png","//upload.wikimedia.org/wikipedia/en/thumb/f/fb/Yes_check.svg/7px-Yes_check.svg.png","//upload.wikimedia.org/wikipedia/en/thumb/f/fb/Yes_check.svg/7px-Yes_check.svg.png","//upload.wikimedia.org/wikipedia/en/thumb/f/fb/Yes_check.svg/7px-Yes_check.svg.png","//upload.wikimedia.org/wikipedia/commons/thumb/a/a2/X_mark.svg/7px-X_mark.svg.png","//upload.wikimedia.org/wikipedia/commons/thumb/a/a2/X_mark.svg/7px-X_mark.svg.png","//upload.wikimedia.org/wikipedia/commons/thumb/a/a2/X_mark.svg/7px-X_mark.svg.png","//upload.wikimedia.org/wikipedia/commons/thumb/a/a2/X_mark.svg/7px-X_mark.svg.png","//upload.wikimedia.org/wikipedia/commons/thumb/c/c3/GHS-pictogram-exclam.svg/50px-GHS-pictogram-exclam.svg.png","//upload.wikimedia.org/wikipedia/commons/thumb/e/ed/Hazard_X.svg/40px-Hazard_X.svg.png","//upload.wikimedia.org/wikipedia/commons/thumb/6/6f/NFPA_704.svg/75px-NFPA_704.svg.png","//upload.wikimedia.org/wikipedia/commons/thumb/a/a2/X_mark.svg/14px-X_mark.svg.png","//upload.wikimedia.org/wikipedia/en/thumb/f/fb/Yes_check.svg/10px-Yes_check.svg.png","//upload.wikimedia.org/wikipedia/commons/thumb/a/a2/X_mark.svg/10px-X_mark.svg.png","//upload.wikimedia.org/wikipedia/commons/thumb/d/d4/Alcohol_general.svg/40px-Alcohol_general.svg.png","//bits.wikimedia.org/static-1.21wmf11/skins/vector/images/search-ltr.png?303-4","//bits.wikimedia.org/images/wikimedia-button.png","//bits.wikimedia.org/static-1.21wmf11/skins/common/images/poweredby_mediawiki_88x31.png"],"tags":[],"members":[],"related":["1,2-Butanediol","1,4-Butanediol","2,3-Butanediol","2-Methylpentane","Organic_chemistry","Alcohol","Solvent","Flavor","Monomer","Polyurethane","Polyester","Isomer","Butanediol","Biology","Hypoglycaemia"]}