{"cursor":"30351","size":15,"audio":[],"currentlang":"en","article":"The following is a list of the 118 identified chemical elements.\n","linknr":672,"url":"List_of_elements_by_melting_point","recorded":1364202096,"links":["/w/index.php?title=List_of_elements&action=edit","/w/index.php?title=List_of_elements&action=edit","//en.wikipedia.org/apple-touch-icon.png","//bits.wikimedia.org/favicon/wikipedia.ico","/w/opensearch_desc.php","//en.wikipedia.org/w/api.php?action=rsd","//creativecommons.org/licenses/by-sa/3.0/","/w/index.php?title=Special:RecentChanges&feed=atom","/wiki/List_of_elements","//bits.wikimedia.org/en.wikipedia.org/load.php?debug=false&lang=en&modules=ext.gadget.DRN-wizard%2CReferenceTooltips%2Ccharinsert%2Cteahouse%7Cext.wikihiero%7Cmediawiki.legacy.commonPrint%2Cshared%7Cmw.PopUpMediaTransform%7Cskins.vector&only=styles&skin=vector&*","//bits.wikimedia.org/en.wikipedia.org/load.php?debug=false&lang=en&modules=site&only=styles&skin=vector&*","//bits.wikimedia.org/en.wikipedia.org/load.php?debug=false&lang=en&modules=startup&only=scripts&skin=vector&*","//bits.wikimedia.org/geoiplookup","//meta.wikimedia.org","/w/index.php?title=List_of_elements_by_melting_point&redirect=no","#mw-head","#p-search","/wiki/Chemical_element","/w/index.php?title=List_of_elements&action=edit&section=1","/wiki/Atomic_number","/wiki/Atomic_symbol","/wiki/Chemical_element","#cite_note-1","/wiki/Group_(periodic_table)","/wiki/Period_(periodic_table)","/wiki/Atomic_weight","/wiki/Atomic_mass_unit","/wiki/Uncertainty#Measurements","/wiki/Density","/wiki/Gram","/wiki/Cubic_centimetre","/wiki/Melting_point","/wiki/Kelvin","/wiki/Boiling_point","/wiki/Kelvin","/wiki/Specific_heat_capacity","/wiki/Joules","/wiki/Gram","/wiki/Kelvin","/wiki/Electronegativity","#endnote_10","/wiki/Abundance_of_elements_in_Earth%27s_crust","/wiki/Milligram","/wiki/Kilogram","/wiki/Hydrogen","/wiki/Greek_language","#endnote_2","#endnote_3","#endnote_4","#endnote_9","/wiki/Helium","#endnote_2","#endnote_4","#endnote_6","/wiki/Lithium","#endnote_2","#endnote_3","#endnote_4","#endnote_5","#endnote_9","/wiki/Beryllium","/wiki/Boron","/wiki/Arabic","#endnote_2","#endnote_3","#endnote_4","#endnote_9","/wiki/Carbon","/wiki/Latin","#endnote_2","#endnote_4","#endnote_9","/wiki/Nitrogen","#endnote_2","#endnote_4","#endnote_9","/wiki/Oxygen","#endnote_2","#endnote_4","#endnote_9","/wiki/Fluorine","/wiki/Neon","#endnote_2","#endnote_3","/wiki/Sodium","/wiki/English_language","#cite_note-innvista-2","/wiki/Magnesium","/wiki/Magnesia_(regional_unit)","/wiki/Thessaly","/wiki/Greece","/wiki/Aluminium","/wiki/Silicon","#endnote_4","#endnote_9","/wiki/Phosphorus","/wiki/Sulfur","/wiki/Sanskrit","#cite_note-innvista-2","#endnote_2","#endnote_4","#endnote_9","/wiki/Chlorine","#endnote_2","#endnote_3","#endnote_4","#endnote_9","/wiki/Argon","#endnote_2","#endnote_4","/wiki/Potassium","#cite_note-innvista-2","/wiki/Calcium","#endnote_2","/wiki/Scandium","/wiki/Scandinavia","/wiki/Titanium","/wiki/Titan_(mythology)","/wiki/Vanadium","/wiki/List_of_names_of_Freyja","/wiki/Norse_mythology","/wiki/Freyja","/wiki/Chromium","/wiki/Manganese","/wiki/Iron","/wiki/Anglo-Saxon","/wiki/Cobalt","/wiki/German_language","/wiki/Nickel","/wiki/Copper","/wiki/Cyprus","#endnote_4","/wiki/Zinc","/wiki/Persian_language","/wiki/Gallium","/wiki/France","/wiki/Germanium","/wiki/Germany","/wiki/Arsenic","/wiki/Orpiment","#endnote_7","/wiki/Selenium","/wiki/Moon","#endnote_4","/wiki/Bromine","/wiki/Krypton","#endnote_2","#endnote_3","/wiki/Rubidium","#endnote_2","/wiki/Strontium","/wiki/Strontian","/wiki/Scotland","#endnote_2","#endnote_4","/wiki/Yttrium","/wiki/Ytterby","/wiki/Sweden","/wiki/Zirconium","#endnote_2","/wiki/Niobium","/wiki/Niobe","/wiki/Tantalus","/wiki/Molybdenum","#endnote_2","/wiki/Technetium","#endnote_1","/wiki/Ruthenium","/wiki/Russia","#endnote_2","/wiki/Rhodium","/wiki/Palladium","/wiki/Athena","#endnote_2","/wiki/Silver","/wiki/Anglo-Saxon","#cite_note-innvista-2","#endnote_2","/wiki/Cadmium","#endnote_2","/wiki/Indium","/wiki/Tin","#endnote_2","/wiki/Antimony","#endnote_2","/wiki/Tellurium","/wiki/Earth","/wiki/Solar_system","#endnote_2","/wiki/Iodine","/wiki/Xenon","#endnote_2","#endnote_3","/wiki/Caesium","/wiki/Barium","/wiki/Lanthanum","#endnote_2","/wiki/Cerium","/wiki/Ceres_(Roman_mythology)","/wiki/Roman_mythology","#endnote_2","/wiki/Praseodymium","/wiki/Neodymium","#endnote_2","/wiki/Promethium","/wiki/Prometheus","#endnote_1","/wiki/Samarium","/wiki/Samarskite","#endnote_2","/wiki/Europium","/wiki/Europe","#endnote_2","/wiki/Gadolinium","/wiki/Johan_Gadolin","#endnote_2","/wiki/Terbium","/wiki/Dysprosium","#endnote_2","/wiki/Holmium","/wiki/Stockholm","/wiki/Erbium","#endnote_2","/wiki/Thulium","/wiki/Thule","/wiki/Ytterbium","#endnote_2","/wiki/Lutetium","/wiki/Paris","#endnote_2","/wiki/Hafnium","/wiki/Copenhagen","/wiki/Tantalum","/wiki/Tantalus","/wiki/Tungsten","#cite_note-innvista-2","/wiki/Rhenium","/wiki/Rhine","/wiki/Grisons","/wiki/Swiss_Alps","/wiki/North_Sea","/wiki/Netherlands","/wiki/Osmium","#endnote_2","/wiki/Iridium","/wiki/Iris_(mythology)","/wiki/Platinum","/wiki/Spanish_language","/wiki/Gold","#cite_note-innvista-2","/wiki/Mercury_(element)","/wiki/Mercury_(planet)","/wiki/Solar_System","/wiki/Thallium","#endnote_9","/wiki/Lead","#cite_note-innvista-2","#endnote_2","#endnote_4","/wiki/Bismuth","#endnote_1","/wiki/Polonium","/wiki/Poland","/wiki/Marie_Curie","#endnote_1","/wiki/Astatine","#endnote_1","/wiki/Radon","#endnote_1","/wiki/Francium","#endnote_1","/wiki/Radium","#endnote_1","/wiki/Actinium","#endnote_1","/wiki/Thorium","/wiki/Thor","#endnote_1","#endnote_2","/wiki/Protactinium","#endnote_1","/wiki/Uranium","/wiki/Uranus","#endnote_1","/wiki/Neptunium","/wiki/Neptune","#endnote_1","/wiki/Plutonium","/wiki/Pluto","#endnote_1","/wiki/Americium","/wiki/Americas","#endnote_1","/wiki/Curium","/wiki/Pierre_Curie","/wiki/Marie_Curie","#endnote_1","/wiki/Berkelium","/wiki/Berkeley,_California","#endnote_1","/wiki/Californium","/wiki/State_of_California","#endnote_1","/wiki/Einsteinium","/wiki/Albert_Einstein","#endnote_1","#endnote_8","/wiki/Fermium","/wiki/Enrico_Fermi","#endnote_1","#endnote_8","/wiki/Mendelevium","/wiki/Dmitri_Mendeleyev","#endnote_1","#endnote_8","/wiki/Nobelium","/wiki/Alfred_Nobel","#endnote_1","#endnote_8","/wiki/Lawrencium","/wiki/Ernest_O._Lawrence","#endnote_1","#endnote_8","/wiki/Rutherfordium","/wiki/Ernest_Rutherford","#endnote_1","#endnote_8","/wiki/Dubnium","/wiki/Dubna","#endnote_1","#endnote_8","/wiki/Seaborgium","/wiki/Glenn_T._Seaborg","#endnote_1","#endnote_8","/wiki/Bohrium","/wiki/Niels_Bohr","#endnote_1","#endnote_8","/wiki/Hassium","/wiki/Hesse","#endnote_1","#endnote_8","/wiki/Meitnerium","/wiki/Lise_Meitner","#endnote_1","#endnote_8","/wiki/Darmstadtium","/wiki/Darmstadt","#endnote_1","#endnote_8","/wiki/Roentgenium","/wiki/Wilhelm_Conrad_R%C3%B6ntgen","#endnote_1","#endnote_8","/wiki/Copernicium","/wiki/Nicolaus_Copernicus","#endnote_1","#endnote_8","/wiki/Ununtrium","/wiki/IUPAC","/wiki/Systematic_element_name","#endnote_1","#endnote_8","/wiki/Flerovium","/wiki/Georgy_Flyorov","#endnote_1","#endnote_8","/wiki/Ununpentium","/wiki/IUPAC","/wiki/Systematic_element_name","#endnote_1","#endnote_8","/wiki/Livermorium","/wiki/Lawrence_Livermore_National_Laboratory","/wiki/Livermore,_California","#endnote_1","#endnote_8","/wiki/Ununseptium","/wiki/IUPAC","/wiki/Systematic_element_name","#endnote_1","#endnote_8","/wiki/Ununoctium","/wiki/IUPAC","/wiki/Systematic_element_name","#endnote_1","#endnote_8","/wiki/Metal","/wiki/Metalloid","/wiki/Nonmetal","/wiki/Alkali_metal","/wiki/Alkaline_earth_metal","/wiki/Inner_transition_metal","/wiki/Transition_metal","/wiki/Post-transition_metal","/wiki/Nonmetal","/wiki/Halogen","/wiki/Noble_gas","/wiki/Lanthanide","/wiki/Actinide","/w/index.php?title=List_of_elements&action=edit&section=2","#ref_1","#ref_2","#ref_3","#ref_4","#ref_5","#ref_6","#ref_7","#ref_8","/wiki/Transuranic","#ref_9","#ref_10","/w/index.php?title=List_of_elements&action=edit&section=3","#cite_ref-1","http://www.rsc.org/periodic-table","#cite_ref-innvista_2-0","#cite_ref-innvista_2-1","#cite_ref-innvista_2-2","#cite_ref-innvista_2-3","#cite_ref-innvista_2-4","#cite_ref-innvista_2-5","#cite_ref-innvista_2-6","http://www.innvista.com/chemistry/elements/etymology-of-elements/","/wiki/Digital_object_identifier","http://dx.doi.org/10.1351%2Fpac200678112051","http://old.iupac.org/news/archives/2007/atomic-weights_revised07.html","http://old.iupac.org/news/archives/2007/atomic-weights_revised07.html","http://iupac.org/publications/pac/pdf/2011/pdf/8302x0359.pdf","http://iupac.org/publications/pac/pdf/2011/pdf/8302x0359.pdf","http://www.nndc.bnl.gov/chart/","http://www.nndc.bnl.gov/chart/","/wiki/Template:Periodic_tables_footer","/wiki/Template_talk:Periodic_tables_footer","//en.wikipedia.org/w/index.php?title=Template:Periodic_tables_footer&action=edit","/wiki/Periodic_table","/wiki/Template:Periodic_table","/wiki/Template:Compact_periodic_table","/wiki/Periodic_table_(large_version)","/wiki/Periodic_table_(text_only)","/wiki/Periodic_table_(wide)","/wiki/Template:Periodic_table_(wide_large)","/wiki/Periodic_table_(vertical)","/wiki/Extended_periodic_table","/wiki/Extended_periodic_table#Pyykk.C3.B6_model","/wiki/Template:Compact_extended_periodic_table","/wiki/Extended_periodic_table_(large_version)","/wiki/Extended_periodic_table_(large_version)#Pyykk.C3.B6_model","/wiki/Alternative_periodic_tables","/wiki/Charles_Janet#Chemical_ideas","/wiki/Template:Janet_periodic_table_(compact)","/wiki/Chemical_Galaxy","/wiki/Chemical_element","/wiki/Template:Periodic_table_(valence)","/wiki/Periodic_table_(electron_configurations)","/wiki/Template:Periodic_table_(electronegativity_by_Pauling_scale)","/wiki/Template:Periodic_table_(electronegativity_by_Allen_scale)","/wiki/Periodic_table_(crystal_structure)","/wiki/Goldschmidt_classification","/wiki/Template:Periodic_table_(atomic_weight)","/wiki/Template:Periodic_table_(dietary_elements)","/wiki/Template:Periodic_table_(nutritional_elements)","/wiki/Template:Periodic_table_(electron_affinities)","/wiki/Platinum_group","/wiki/Refractory_metals","/wiki/Rare_earth_element","/wiki/Symbol_(chemical_element)","/wiki/Abundance_of_the_chemical_elements","/wiki/Composition_of_the_human_body","/wiki/List_of_elements_by_stability_of_isotopes","/wiki/List_of_elements_by_atomic_properties","/wiki/List_of_world_production_chemical_elements","/wiki/Electron_configurations_of_the_elements_(data_page)","/wiki/Densities_of_the_elements_(data_page)","/wiki/Electron_affinity_(data_page)","/wiki/Melting_points_of_the_elements_(data_page)","/wiki/Boiling_points_of_the_elements_(data_page)","/wiki/Critical_points_of_the_elements_(data_page)","/wiki/Heats_of_fusion_of_the_elements_(data_page)","/wiki/Heats_of_vaporization_of_the_elements_(data_page)","/wiki/Heat_capacities_of_the_elements_(data_page)","/wiki/Vapor_pressures_of_the_elements_(data_page)","/wiki/Electronegativities_of_the_elements_(data_page)","/wiki/Ionization_energies_of_the_elements_(data_page)","/wiki/Atomic_radii_of_the_elements_(data_page)","/wiki/Electrical_resistivities_of_the_elements_(data_page)","/wiki/Thermal_conductivities_of_the_elements_(data_page)","/wiki/Thermal_expansion_coefficients_of_the_elements_(data_page)","/wiki/Speeds_of_sound_of_the_elements_(data_page)","/wiki/Elastic_properties_of_the_elements_(data_page)","/wiki/Hardnesses_of_the_elements_(data_page)","/wiki/Abundances_of_the_elements_(data_page)","/wiki/List_of_oxidation_states_of_the_elements","/wiki/Group_(periodic_table)","/wiki/Alkali_metal","/wiki/Alkaline_earth_metal","/wiki/Group_3_element","/wiki/Group_4_element","/wiki/Group_5_element","/wiki/Group_6_element","/wiki/Group_7_element","/wiki/Group_8_element","/wiki/Group_9_element","/wiki/Group_10_element","/wiki/Group_11_element","/wiki/Group_12_element","/wiki/Boron_group","/wiki/Carbon_group","/wiki/Pnictogen","/wiki/Chalcogen","/wiki/Halogen","/wiki/Noble_gas","/wiki/Periodic_table_(metals_and_nonmetals)","/wiki/Metal","/wiki/Metalloid","/wiki/Dividing_line_between_metals_and_nonmetals","/wiki/Nonmetal","/wiki/Alkali_metal","/wiki/Alkaline_earth_metal","/wiki/Lanthanide","/wiki/Actinide","/wiki/Superactinide","/wiki/Eka-superactinide","/wiki/Transition_metal","/wiki/Metalloid","/wiki/Post-transition_metal","/wiki/Nonmetal","/wiki/Halogen","/wiki/Noble_gas","/wiki/Block_(periodic_table)","/wiki/S-block","/wiki/P-block","/wiki/D-block","/wiki/F-block","/wiki/G-block","/wiki/Period_(periodic_table)","/wiki/Period_1_element","/wiki/Period_2_element","/wiki/Period_3_element","/wiki/Period_4_element","/wiki/Period_5_element","/wiki/Period_6_element","/wiki/Period_7_element","/wiki/Period_8_element","/wiki/Period_9_element","/wiki/Timeline_of_chemical_elements_discoveries","/wiki/History_of_the_periodic_table","/wiki/List_of_chemical_element_name_etymologies","/wiki/List_of_places_used_in_the_names_of_chemical_elements","/wiki/List_of_scientists_whose_names_are_used_in_chemical_element_names","/wiki/Dmitri_Mendeleev","/wiki/International_Union_of_Pure_and_Applied_Chemistry","/wiki/Chemical_nomenclature","/wiki/Systematic_element_name","/wiki/Collective_names_of_groups_of_like_elements","/wiki/Trivial_name","/wiki/Chemical_elements_in_East_Asian_languages","//upload.wikimedia.org/wikipedia/commons/thumb/8/89/Symbol_book_class2.svg/16px-Symbol_book_class2.svg.png","/wiki/Book:Periodic_table","//upload.wikimedia.org/wikipedia/en/thumb/4/48/Folder_Hexagonal_Icon.svg/16px-Folder_Hexagonal_Icon.svg.png","/wiki/Category:Periodic_table","//upload.wikimedia.org/wikipedia/en/thumb/f/fd/Portal-puzzle.svg/16px-Portal-puzzle.svg.png","/wiki/Portal:Chemistry","http://en.wikipedia.org/w/index.php?title=List_of_elements&oldid=545317664","/wiki/Help:Categories","/wiki/Category:Lists_of_chemical_elements","/w/index.php?title=Special:UserLogin&returnto=List+of+elements&type=signup","/w/index.php?title=Special:UserLogin&returnto=List+of+elements","/wiki/List_of_elements","/wiki/Talk:List_of_elements","#","/wiki/List_of_elements","/w/index.php?title=List_of_elements&action=edit","/w/index.php?title=List_of_elements&action=history","#","/w/index.php","//bits.wikimedia.org/static-1.21wmf11/skins/vector/images/search-ltr.png?303-4","/wiki/Main_Page","/wiki/Main_Page","/wiki/Portal:Contents","/wiki/Portal:Featured_content","/wiki/Portal:Current_events","/wiki/Special:Random","//donate.wikimedia.org/wiki/Special:FundraiserRedirector?utm_source=donate&utm_medium=sidebar&utm_campaign=C13_en.wikipedia.org&uselang=en","/wiki/Help:Contents","/wiki/Wikipedia:About","/wiki/Wikipedia:Community_portal","/wiki/Special:RecentChanges","/wiki/Wikipedia:Contact_us","/wiki/Special:WhatLinksHere/List_of_elements","/wiki/Special:RecentChangesLinked/List_of_elements","/wiki/Wikipedia:File_Upload_Wizard","/wiki/Special:SpecialPages","/w/index.php?title=List_of_elements&oldid=545317664","/w/index.php?title=List_of_elements&action=info","/w/index.php?title=Special:Cite&page=List_of_elements&id=545317664","/w/index.php?title=Special:Book&bookcmd=book_creator&referer=List+of+elements","/w/index.php?title=Special:Book&bookcmd=render_article&arttitle=List+of+elements&oldid=545317664&writer=rl","/w/index.php?title=List_of_elements&printable=yes","//af.wikipedia.org/wiki/Lys_van_elemente_volgens_getal","//ast.wikipedia.org/wiki/Llist%C3%A1u_d%27elementos_por_n%C3%BAmberu_at%C3%B3micu","//bn.wikipedia.org/wiki/%E0%A6%AE%E0%A7%8C%E0%A6%B2%E0%A6%BF%E0%A6%95_%E0%A6%AA%E0%A6%A6%E0%A6%BE%E0%A6%B0%E0%A7%8D%E0%A6%A5%E0%A7%87%E0%A6%B0_%E0%A6%A4%E0%A6%BE%E0%A6%B2%E0%A6%BF%E0%A6%95%E0%A6%BE","//zh-min-nan.wikipedia.org/wiki/Go%C3%A2n-s%C3%B2%CD%98_lia%CC%8Dt-toa%E2%81%BF","//ba.wikipedia.org/wiki/%D0%A5%D0%B8%D0%BC%D0%B8%D0%BA_%D1%8D%D0%BB%D0%B5%D0%BC%D0%B5%D0%BD%D1%82%D1%82%D0%B0%D1%80_%D0%B8%D1%81%D0%B5%D0%BC%D0%BB%D0%B5%D0%B3%D0%B5","//bg.wikipedia.org/wiki/%D0%A5%D0%B8%D0%BC%D0%B8%D1%87%D0%BD%D0%B8_%D0%B5%D0%BB%D0%B5%D0%BC%D0%B5%D0%BD%D1%82%D0%B8_%D0%BF%D0%BE_%D0%B0%D1%82%D0%BE%D0%BC%D0%B5%D0%BD_%D0%BD%D0%BE%D0%BC%D0%B5%D1%80","//br.wikipedia.org/wiki/Roll_an_elfenno%C3%B9_kimiek","//ca.wikipedia.org/wiki/Llista_d%27elements_per_nombre_at%C3%B2mic","//cs.wikipedia.org/wiki/Seznam_chemick%C3%BDch_prvk%C5%AF","//cy.wikipedia.org/wiki/Rhestr_elfennau_yn_nhrefn_eu_rhifau_atomig","//da.wikipedia.org/wiki/Grundstoffer_efter_atomnummer","//de.wikipedia.org/wiki/Liste_der_chemischen_Elemente","//et.wikipedia.org/wiki/Keemiliste_elementide_loend","//el.wikipedia.org/wiki/%CE%9A%CE%B1%CF%84%CE%AC%CE%BB%CE%BF%CE%B3%CE%BF%CF%82_%CF%87%CE%B7%CE%BC%CE%B9%CE%BA%CF%8E%CE%BD_%CF%83%CF%84%CE%BF%CE%B9%CF%87%CE%B5%CE%AF%CF%89%CE%BD_%CE%BA%CE%B1%CF%84%CE%AC_%CE%B1%CF%84%CE%BF%CE%BC%CE%B9%CE%BA%CF%8C_%CE%B1%CF%81%CE%B9%CE%B8%CE%BC%CF%8C","//eo.wikipedia.org/wiki/Listo_de_kemiaj_elementoj_la%C5%AD_atomnumero","//eu.wikipedia.org/wiki/Elementu_kimikoen_zerrenda_ikurraren_arabera","//fa.wikipedia.org/wiki/%D9%81%D9%87%D8%B1%D8%B3%D8%AA_%D8%B9%D9%86%D8%A7%D8%B5%D8%B1_%D8%AC%D8%AF%D9%88%D9%84_%D8%AA%D9%86%D8%A7%D9%88%D8%A8%DB%8C","//fr.wikipedia.org/wiki/Liste_des_%C3%A9l%C3%A9ments_chimiques","//fy.wikipedia.org/wiki/Skiekundige_eleminten","//ga.wikipedia.org/wiki/Liosta_na_nd%C3%BAl_de_r%C3%A9ir_na_n-uimhreach_adamhach","//gv.wikipedia.org/wiki/Rolley_bunstooghyn_rere_earroo_breneenagh","//ko.wikipedia.org/wiki/%EC%9B%90%EC%9E%90_%EB%B2%88%ED%98%B8_%EC%88%9C_%EC%9B%90%EC%86%8C_%EB%AA%A9%EB%A1%9D","//hi.wikipedia.org/wiki/%E0%A4%B0%E0%A4%BE%E0%A4%B8%E0%A4%BE%E0%A4%AF%E0%A4%A8%E0%A4%BF%E0%A4%95_%E0%A4%A4%E0%A4%A4%E0%A5%8D%E0%A4%B5%E0%A5%8B%E0%A4%82_%E0%A4%95%E0%A5%80_%E0%A4%B8%E0%A5%82%E0%A4%9A%E0%A5%80","//io.wikipedia.org/wiki/Kemial_elementi","//is.wikipedia.org/wiki/Listi_yfir_frumefni_eftir_s%C3%A6tist%C3%B6lu","//it.wikipedia.org/wiki/Elementi_per_numero_atomico","//he.wikipedia.org/wiki/%D7%99%D7%A1%D7%95%D7%93%D7%95%D7%AA_%D7%9B%D7%99%D7%9E%D7%99%D7%99%D7%9D","//lv.wikipedia.org/wiki/%C4%B6%C4%ABmisko_elementu_saraksts","//jbo.wikipedia.org/wiki/selratni_liste_fi_lo_namcu","//hu.wikipedia.org/wiki/K%C3%A9miai_elemek_list%C3%A1ja","//mk.wikipedia.org/wiki/%D0%9B%D0%B8%D1%81%D1%82%D0%B0_%D0%BD%D0%B0_%D1%85%D0%B5%D0%BC%D0%B8%D1%81%D0%BA%D0%B8%D1%82%D0%B5_%D0%B5%D0%BB%D0%B5%D0%BC%D0%B5%D0%BD%D1%82%D0%B8_%D1%81%D0%BF%D0%BE%D1%80%D0%B5%D0%B4_%D0%B0%D1%82%D0%BE%D0%BC%D1%81%D0%BA%D0%B8%D0%BE%D1%82_%D0%B1%D1%80%D0%BE%D1%98","//ms.wikipedia.org/wiki/Senarai_unsur_mengikut_nombor_atom","//nl.wikipedia.org/wiki/Lijst_van_elementen","//nds-nl.wikipedia.org/wiki/Liest_van_schaaikundege_elem%C3%ACnten","//ja.wikipedia.org/wiki/%E5%85%83%E7%B4%A0%E3%81%AE%E4%B8%80%E8%A6%A7","//no.wikipedia.org/wiki/Grunnstoffliste","//nn.wikipedia.org/wiki/Grunnstoffliste_etter_atomnummer","//pnb.wikipedia.org/wiki/%D8%B9%D9%86%D8%B5%D8%B1%D8%A7%DA%BA_%D8%AF%DB%8C_%D9%84%D8%B3%D9%B9","//pl.wikipedia.org/wiki/Pierwiastki_chemiczne_wed%C5%82ug_liczby_atomowej","//pt.wikipedia.org/wiki/Anexo:Lista_de_elementos_qu%C3%ADmicos","//ru.wikipedia.org/wiki/%D0%A1%D0%BF%D0%B8%D1%81%D0%BE%D0%BA_%D1%85%D0%B8%D0%BC%D0%B8%D1%87%D0%B5%D1%81%D0%BA%D0%B8%D1%85_%D1%8D%D0%BB%D0%B5%D0%BC%D0%B5%D0%BD%D1%82%D0%BE%D0%B2","//stq.wikipedia.org/wiki/Lieste_fon_chemiske_Elemente","//sq.wikipedia.org/wiki/Lista_e_elementeve_kimike_sipas_numrit_atomik","//simple.wikipedia.org/wiki/List_of_elements_by_atomic_number","//sl.wikipedia.org/wiki/Seznam_kemi%C4%8Dnih_elementov_po_atomskem_%C5%A1tevilu","//fi.wikipedia.org/wiki/Luettelo_alkuaineista","//sv.wikipedia.org/wiki/Lista_%C3%B6ver_grund%C3%A4mnen","//ta.wikipedia.org/wiki/%E0%AE%A4%E0%AE%A9%E0%AE%BF%E0%AE%AE%E0%AE%99%E0%AF%8D%E0%AE%95%E0%AE%B3%E0%AE%BF%E0%AE%A9%E0%AF%8D_%E0%AE%AA%E0%AF%86%E0%AE%AF%E0%AE%B0%E0%AF%8D%E0%AE%AA%E0%AF%8D_%E0%AE%AA%E0%AE%9F%E0%AF%8D%E0%AE%9F%E0%AE%BF%E0%AE%AF%E0%AE%B2%E0%AF%8D","//tt.wikipedia.org/wiki/Ximi%C3%A4_elementl%C3%A4re_tezm%C3%A4se,_bilge_buy%C4%B1n%C3%A7a","//te.wikipedia.org/wiki/%E0%B0%AA%E0%B0%B0%E0%B0%AE%E0%B0%BE%E0%B0%A3%E0%B1%81_%E0%B0%B8%E0%B0%82%E0%B0%96%E0%B1%8D%E0%B0%AF_%E0%B0%AA%E0%B1%8D%E0%B0%B0%E0%B0%95%E0%B0%BE%E0%B0%B0%E0%B0%82_%E0%B0%AE%E0%B1%82%E0%B0%B2%E0%B0%95%E0%B0%BE%E0%B0%B2%E0%B1%81","//th.wikipedia.org/wiki/%E0%B8%A3%E0%B8%B2%E0%B8%A2%E0%B8%8A%E0%B8%B7%E0%B9%88%E0%B8%AD%E0%B8%98%E0%B8%B2%E0%B8%95%E0%B8%B8%E0%B9%80%E0%B8%84%E0%B8%A1%E0%B8%B5%E0%B9%80%E0%B8%A3%E0%B8%B5%E0%B8%A2%E0%B8%87%E0%B8%95%E0%B8%B2%E0%B8%A1%E0%B9%80%E0%B8%A5%E0%B8%82%E0%B8%AD%E0%B8%B0%E0%B8%95%E0%B8%AD%E0%B8%A1","//uk.wikipedia.org/wiki/%D0%A1%D0%BF%D0%B8%D1%81%D0%BE%D0%BA_%D1%85%D1%96%D0%BC%D1%96%D1%87%D0%BD%D0%B8%D1%85_%D0%B5%D0%BB%D0%B5%D0%BC%D0%B5%D0%BD%D1%82%D1%96%D0%B2","//ur.wikipedia.org/wiki/%D9%81%DB%81%D8%B1%D8%B3%D8%AA_%D8%B9%D9%86%D8%A7%D8%B5%D8%B1_%D8%A8%D9%84%D8%AD%D8%A7%D8%B8_%D9%86%D8%A7%D9%85","//wa.wikipedia.org/wiki/Djiv%C3%AAye_des_elemints_tchimikes,_d%27_apr%C3%A8s_leu_essegne","//yo.wikipedia.org/wiki/%C3%80w%E1%BB%8Dn_%C3%A0k%C3%B3j%E1%BB%8D_n%E1%BB%8D%CC%81mb%C3%A0_%C3%A1t%E1%BB%8D%CC%81m%C3%B9_%C3%A0w%E1%BB%8Dn_apil%E1%BA%B9%CC%80s%E1%BA%B9%CC%80","//zh-yue.wikipedia.org/wiki/%E5%85%83%E7%B4%A0%E5%8E%9F%E5%AD%90%E5%BA%8F%E8%99%9F%E8%A1%A8","//zh.wikipedia.org/wiki/%E5%85%83%E7%B4%A0%E5%BA%8F%E6%95%B0%E5%88%97%E8%A1%A8","//www.wikidata.org/wiki/Special:ItemByTitle/enwiki/List of elements","//en.wikipedia.org/wiki/Wikipedia:Text_of_Creative_Commons_Attribution-ShareAlike_3.0_Unported_License","//creativecommons.org/licenses/by-sa/3.0/","//wikimediafoundation.org/wiki/Terms_of_Use","//www.wikimediafoundation.org/","//en.wikipedia.org/wiki/Wikipedia:Contact_us","//wikimediafoundation.org/wiki/Privacy_policy","/wiki/Wikipedia:About","/wiki/Wikipedia:General_disclaimer","http://en.m.wikipedia.org/wiki/List_of_elements","//wikimediafoundation.org/","//bits.wikimedia.org/images/wikimedia-button.png","//www.mediawiki.org/","//bits.wikimedia.org/static-1.21wmf11/skins/common/images/poweredby_mediawiki_88x31.png","//bits.wikimedia.org/en.wikipedia.org/load.php?debug=false&lang=en&modules=skins.vector&only=scripts&skin=vector&*","/w/index.php?title=MediaWiki:Gadget-ReferenceTooltips.js&action=raw&ctype=text/javascript&508635914","//bits.wikimedia.org/en.wikipedia.org/load.php?debug=false&lang=en&modules=site&only=scripts&skin=vector&*"],"instances":["planet","roman_mythology","periodic_table","periodic_table","mythology","mythology","regional_unit"],"pdf":["http://iupac.org/publications/pac/pdf/2011/pdf/8302x0359.pdf","http://iupac.org/publications/pac/pdf/2011/pdf/8302x0359.pdf"],"categories":["Lists of chemical elements"],"headings":["List","Notes","References"],"image":["//upload.wikimedia.org/wikipedia/commons/thumb/8/89/Symbol_book_class2.svg/16px-Symbol_book_class2.svg.png","//upload.wikimedia.org/wikipedia/en/thumb/4/48/Folder_Hexagonal_Icon.svg/16px-Folder_Hexagonal_Icon.svg.png","//upload.wikimedia.org/wikipedia/en/thumb/f/fd/Portal-puzzle.svg/16px-Portal-puzzle.svg.png","//bits.wikimedia.org/static-1.21wmf11/skins/vector/images/search-ltr.png?303-4","//bits.wikimedia.org/images/wikimedia-button.png","//bits.wikimedia.org/static-1.21wmf11/skins/common/images/poweredby_mediawiki_88x31.png"],"tags":[["group","periodic_table"],["period","periodic_table"],["magnesia","regional_unit"],["titan","mythology"],["ceres","roman_mythology"],["iris","mythology"],["mercury","element"],["mercury","planet"]],"members":["mercury","ceres","group","period","titan","iris","magnesia"],"related":["Chemical_element","Atomic_number","Atomic_symbol","Chemical_element","Group_(periodic_table)","Period_(periodic_table)","Atomic_weight","Atomic_mass_unit","Density","Gram","Cubic_centimetre","Melting_point","Kelvin","Boiling_point","Kelvin","Specific_heat_capacity","Joules","Gram","Kelvin","Electronegativity","Abundance_of_elements_in_Earth's_crust","Milligram","Kilogram","Hydrogen","Greek_language","Helium","Lithium","Beryllium","Boron","Arabic","Carbon","Latin","Nitrogen","Oxygen","Fluorine","Neon","Sodium","English_language","Magnesium","Magnesia_(regional_unit)","Thessaly","Greece","Aluminium","Silicon","Phosphorus","Sulfur","Sanskrit","Chlorine","Argon","Potassium","Calcium","Scandium","Scandinavia","Titanium","Titan_(mythology)","Vanadium","List_of_names_of_Freyja","Norse_mythology","Freyja","Chromium","Manganese","Iron","Anglo-Saxon","Cobalt","German_language","Nickel","Copper","Zinc","Persian_language","Gallium","France","Germanium","Germany","Arsenic","Selenium","Moon","Bromine","Krypton","Rubidium","Strontium","Strontian","Scotland","Yttrium","Ytterby","Sweden","Zirconium","Niobium","Niobe","Tantalus","Molybdenum","Technetium","Ruthenium","Russia","Rhodium","Palladium","Athena","Silver","Anglo-Saxon","Cadmium","Indium","Tin","Antimony","Tellurium","Earth","Solar_system","Iodine","Xenon","Caesium","Barium","Lanthanum","Cerium","Ceres_(Roman_mythology)","Roman_mythology","Praseodymium","Neodymium","Promethium","Prometheus","Samarium","Samarskite","Europium","Europe","Gadolinium","Johan_Gadolin","Terbium","Dysprosium","Holmium","Stockholm","Erbium","Thulium","Thule","Ytterbium","Lutetium","Paris","Hafnium","Copenhagen","Tantalum","Tantalus","Tungsten","Rhenium","Rhine","Grisons","Swiss_Alps","North_Sea","Netherlands","Osmium","Iridium","Iris_(mythology)","Platinum","Spanish_language","Gold","Mercury_(element)","Mercury_(planet)","Solar_System","Thallium","Lead","Bismuth","Polonium","Poland","Marie_Curie","Astatine","Radon","Francium","Radium","Actinium","Thorium","Thor","Protactinium","Uranium","Uranus","Neptunium","Neptune","Plutonium","Pluto","Americium","Americas","Curium","Pierre_Curie","Marie_Curie","Berkelium","Berkeley,_California","Californium","State_of_California","Einsteinium","Albert_Einstein","Fermium","Enrico_Fermi","Mendelevium","Dmitri_Mendeleyev","Nobelium","Alfred_Nobel","Lawrencium","Ernest_O._Lawrence","Rutherfordium","Ernest_Rutherford","Dubnium","Dubna","Seaborgium","Glenn_T._Seaborg","Bohrium","Niels_Bohr","Hassium","Hesse","Meitnerium","Lise_Meitner","Darmstadtium","Darmstadt","Roentgenium","Wilhelm_Conrad_Röntgen","Copernicium","Nicolaus_Copernicus","Ununtrium","IUPAC","Systematic_element_name","Flerovium","Georgy_Flyorov","Ununpentium","IUPAC","Systematic_element_name","Livermorium","Lawrence_Livermore_National_Laboratory","Livermore,_California","Ununseptium","IUPAC","Systematic_element_name","Ununoctium","IUPAC","Systematic_element_name","Transuranic"]}