{"cursor":"4485","size":15,"audio":[],"currentlang":"en","article":"{{chembox\n| Verifiedfields = changed verifiedrevid = 443392717 ImageFile = Anthranilic\n| acid 2.svg ImageSize = 160px ImageName = Skeletal formula ImageFile1 = 2-Aminobenzoic-acid-3D-balls-\n| B.png ImageSize1 = 170px ImageName1 = Ball-and-stick model IUPACName = 2-\n| aminobenzoic acid OtherNames = o-aminobenzoic acid, 2-aminobenzoic acid,\n| vitamin L 1, Anthranilate Section1 = {{Chembox Identifiers KEGG_Ref\n| = KEGG = C00108 InChI = 1/C7H7NO2/c8-6-4-2-1-3-5(6)7(9)10/h1-4H,8H2,(H,9,10)\n| ChEBI_Ref = ChEBI = 30754 DrugBank_Ref = DrugBank = DB04166 SMILES =\n| O=C(O)c1ccccc1N InChIKey = RWZYAGGXGHYGMB-UHFFFAOYAS SMILES1 =\n| c1ccc(c(c1)C(=O)O)N ChEMBL_Ref = ChEMBL = 14173 StdInChI_Ref = StdInChI = 1S/C7H7NO2/c8-6-4-2-1-3-5(6)7(9)10/h1-\n| 4H,8H2,(H,9,10) StdInChIKey_Ref = StdInChIKey = RWZYAGGXGHYGMB-UHFFFAOYSA-N\n| CASNo_Ref = CASNo = 118-92-3 ChemSpiderID_Ref = ChemSpiderID = 222\n  }}\n| Section2 = {{Chembox Properties\n|C=7|H=7|N=1|O=2\n|   Solubility = 5.7 g/L (25 °C) Solvent = SolubleOther = Hot water, ethanol and\n|   ether Appearance = white or yellow solid Density = 1.4 g/cm 3\n|   MeltingPt = 146–148\n|   °C [http://www.inchem.org/documents/icsc/icsc/eics1295.htm IPCS]\n|   BoilingPt =\n  }}\n| Section7 = {{Chembox Hazards ExternalMSDS =\n| [https://fscimage.fishersci.com/msds/83188.htm External MSDS] EUClass =\n| RPhrases = SPhrases = NFPA-H = 2 NFPA-F = 1 NFPA-R = 0 FlashPt = >150 °C\n  }} }} 'Anthranilic acid' (or 'o-amino-benzoic acid') is an organic compound\n  with the molecular formula C 7H 7NO 2. The\n  molecule consists of a benzene ring, hence is classed as aromatic, with two\n  adjacent, or \"ortho-\" functional groups, a carboxylic acid and an amine. The\n  compound is consequently amphoteric, although it is not usually referred to as\n  an amino-acid as it has more than one carbon separating the two functional\n  groups. In appearance, anthranilic acid is a white solid when pure, although\n  commercial samples may appear yellow. It may be sensitive to prolonged\n  exposure to air and light. It is flammable and will produce nitrogen oxide\n  fumes when burning.\n\nIt is sometimes referred to as vitamin L 1, and has a sweetish\ntaste The Merck Index, 10th Ed. (1983), p.62., Rahway: Merck & Co.\n","linknr":364,"url":"anthranilate","recorded":1363825710,"links":["/w/index.php?title=Anthranilic_acid&action=edit","/w/index.php?title=Anthranilic_acid&action=edit","//en.wikipedia.org/apple-touch-icon.png","//bits.wikimedia.org/favicon/wikipedia.ico","/w/opensearch_desc.php","//en.wikipedia.org/w/api.php?action=rsd","//creativecommons.org/licenses/by-sa/3.0/","/w/index.php?title=Special:RecentChanges&feed=atom","/wiki/Anthranilic_acid","//bits.wikimedia.org/en.wikipedia.org/load.php?debug=false&lang=en&modules=ext.gadget.DRN-wizard%2CReferenceTooltips%2Ccharinsert%2Cteahouse%7Cext.wikihiero%7Cmediawiki.legacy.commonPrint%2Cshared%7Cmw.PopUpMediaTransform%7Cskins.vector&only=styles&skin=vector&*","//bits.wikimedia.org/en.wikipedia.org/load.php?debug=false&lang=en&modules=site&only=styles&skin=vector&*","//bits.wikimedia.org/en.wikipedia.org/load.php?debug=false&lang=en&modules=startup&only=scripts&skin=vector&*","//bits.wikimedia.org/geoiplookup","//meta.wikimedia.org","/w/index.php?title=Anthranilate&redirect=no","#mw-head","#p-search","/wiki/File:Anthranilic_acid_2.svg","//upload.wikimedia.org/wikipedia/commons/thumb/a/a4/Anthranilic_acid_2.svg/160px-Anthranilic_acid_2.svg.png","/wiki/File:2-Aminobenzoic-acid-3D-balls-B.png","//upload.wikimedia.org/wikipedia/commons/thumb/4/46/2-Aminobenzoic-acid-3D-balls-B.png/170px-2-Aminobenzoic-acid-3D-balls-B.png","/wiki/International_Union_of_Pure_and_Applied_Chemistry_nomenclature","/wiki/CAS_registry_number","http://www.commonchemistry.org/ChemicalDetail.aspx?ref=118-92-3","//upload.wikimedia.org/wikipedia/en/thumb/f/fb/Yes_check.svg/7px-Yes_check.svg.png","/wiki/ChemSpider","http://www.chemspider.com/222","//upload.wikimedia.org/wikipedia/en/thumb/f/fb/Yes_check.svg/7px-Yes_check.svg.png","/wiki/DrugBank","http://www.drugbank.ca/drugs/DB04166","/wiki/KEGG","http://www.kegg.jp/entry/C00108","//upload.wikimedia.org/wikipedia/en/thumb/f/fb/Yes_check.svg/7px-Yes_check.svg.png","/wiki/ChEBI","https://www.ebi.ac.uk/chebi/searchId.do?chebiId=30754","//upload.wikimedia.org/wikipedia/en/thumb/f/fb/Yes_check.svg/7px-Yes_check.svg.png","/wiki/ChEMBL","https://www.ebi.ac.uk/chembldb/index.php/compound/inspect/CHEMBL14173","//upload.wikimedia.org/wikipedia/en/thumb/f/fb/Yes_check.svg/7px-Yes_check.svg.png","/wiki/Jmol","http://chemapps.stolaf.edu/jmol/jmol.php?model=O%3DC%28O%29c1ccccc1N","http://chemapps.stolaf.edu/jmol/jmol.php?model=c1ccc%28c%28c1%29C%28%3DO%29O%29N","/wiki/Simplified_molecular-input_line-entry_system","/wiki/International_Chemical_Identifier","//upload.wikimedia.org/wikipedia/en/thumb/f/fb/Yes_check.svg/7px-Yes_check.svg.png","//upload.wikimedia.org/wikipedia/en/thumb/f/fb/Yes_check.svg/7px-Yes_check.svg.png","/wiki/Molecular_formula","/wiki/Molar_mass","/wiki/Density","/wiki/Melting_point","#cite_note-1","/wiki/Solubility","/wiki/Water","/wiki/Solubility","/wiki/MSDS","https://fscimage.fishersci.com/msds/83188.htm","/wiki/List_of_R-phrases","/wiki/R36:_Irritating_to_eyes","/wiki/R37:_Irritating_to_respiratory_system","/wiki/List_of_S-phrases","/wiki/S26:_In_case_of_contact_with_eyes,_rinse_immediately_with_plenty_of_water_and_seek_medical_advice","/wiki/S39:_Wear_eye/face_protection","/wiki/NFPA_704","/wiki/File:NFPA_704.svg","//upload.wikimedia.org/wikipedia/commons/thumb/6/6f/NFPA_704.svg/75px-NFPA_704.svg.png","/wiki/Flash_point","//upload.wikimedia.org/wikipedia/commons/thumb/a/a2/X_mark.svg/14px-X_mark.svg.png","//en.wikipedia.org/w/index.php?title=Special:ComparePages&rev1=443392717&page2=Anthranilic+acid","/wiki/Wikipedia:WikiProject_Chemicals/Chembox_validation","//upload.wikimedia.org/wikipedia/en/thumb/f/fb/Yes_check.svg/10px-Yes_check.svg.png","//upload.wikimedia.org/wikipedia/commons/thumb/a/a2/X_mark.svg/10px-X_mark.svg.png","/wiki/Standard_state","/wiki/Wikipedia:Chemical_infobox#References","/wiki/Organic_compound","/wiki/Molecular_formula","/wiki/Aromatic","/wiki/Functional_groups","/wiki/Carboxylic_acid","/wiki/Amine","/wiki/Amphoteric","/wiki/Amino-acid","/wiki/Vitamin","#cite_note-2","#Synthesis","#Biological_role","#Uses","#See_also","#References","/w/index.php?title=Anthranilic_acid&action=edit&section=1","/wiki/Phthalimide","/wiki/Hypobromite","#cite_note-3","/w/index.php?title=Anthranilic_acid&action=edit&section=2","/wiki/Chorismic_acid","/wiki/Amino_acid","/wiki/Tryptophan","/wiki/Phosphoribosyl_pyrophosphate","/wiki/Amine_group","/w/index.php?title=Anthranilic_acid&action=edit&section=3","/wiki/Dye","/wiki/Pigment","/wiki/Saccharin","/wiki/Ester","/wiki/Perfume","/wiki/Corrosion_inhibitor","/wiki/Mold_inhibitor","/wiki/Soya_sauce","/wiki/Organic_synthesis","/wiki/Benzyne","#cite_note-4","/wiki/DEA_list_of_chemicals","/wiki/Methaqualone","#cite_note-5","/w/index.php?title=Anthranilic_acid&action=edit&section=4","/wiki/Kynureninase","/w/index.php?title=Anthranilic_acid&action=edit&section=5","#cite_ref-1","http://www.inchem.org/documents/icsc/icsc/eics1295.htm","#cite_ref-2","#cite_ref-3","#cite_ref-4","http://www.orgsyn.org/orgsyn/orgsyn/prepContent.asp?prep=cv5p0054","/wiki/Organic_Syntheses","http://www.orgsyn.org/orgsyn/orgsyn/prepContent.asp?prep=cv5p0054","#cite_ref-5","//www.ncbi.nlm.nih.gov/pubmed/3840834?dopt=Abstract","/wiki/Template:Amino_acid_metabolism_intermediates","/w/index.php?title=Template_talk:Amino_acid_metabolism_intermediates&action=edit&redlink=1","//en.wikipedia.org/w/index.php?title=Template:Amino_acid_metabolism_intermediates&action=edit","/wiki/Amino_acid","/wiki/Amino_acid_synthesis","/wiki/Metabolic_intermediate","/wiki/Ketogenic_amino_acid","/wiki/Acetyl-CoA","/wiki/Lysine","/wiki/Saccharopine","/wiki/Allysine","/wiki/Alpha-Aminoadipic_acid","/wiki/Alpha-Ketoadipic_acid","/wiki/Glutaryl-CoA","/wiki/Glutaconyl-CoA","/wiki/Crotonyl-CoA","/wiki/Beta-Hydroxybutyryl-CoA","/wiki/Leucine","/wiki/Alpha-Ketoisocaproic_acid","/wiki/Isovaleryl-CoA","/wiki/Methylcrotonyl-CoA","/wiki/3-Methylglutaconyl-CoA","/wiki/HMG-CoA","/wiki/Tryptophan","/wiki/Alanine","/wiki/N%27-Formylkynurenine","/wiki/Kynurenine","/wiki/3-Hydroxykynurenine","/wiki/3-Hydroxyanthranilic_acid","/wiki/2-Amino-3-carboxymuconic_semialdehyde","/wiki/2-Aminomuconic_semialdehyde","/wiki/2-Aminomuconic_acid","/wiki/Glutaryl-CoA","/wiki/Glucogenic_amino_acid","/wiki/Pyruvate","/wiki/Citrate","/wiki/Glycine","/wiki/Serine","/wiki/3-Phosphoglyceric_acid","/wiki/Glycine","/wiki/Creatine","/wiki/Glycocyamine","/wiki/Phosphocreatine","/wiki/Creatinine","/wiki/Glutamate","/wiki/Alpha-Ketoglutaric_acid","/wiki/Histidine","/wiki/Urocanic_acid","/wiki/Imidazol-4-one-5-propionic_acid","/wiki/Formiminoglutamic_acid","/wiki/Glutamate-1-semialdehyde","/wiki/Proline","/wiki/1-Pyrroline-5-carboxylic_acid","/wiki/Arginine","/wiki/Ornithine","/wiki/Putrescine","/wiki/Agmatine","/wiki/Cysteine","/wiki/Glutamate","/wiki/Glutathione","/wiki/Gamma-Glutamylcysteine","/wiki/Propionyl-CoA","/wiki/Succinyl-CoA","/wiki/Valine","/wiki/Alpha-Ketoisovaleric_acid","/wiki/Isobutyryl-CoA","/wiki/Methacrylyl-CoA","/wiki/3-Hydroxyisobutyryl-CoA","/wiki/3-Hydroxyisobutyric_acid","/wiki/2-Methyl-3-oxopropanoic_acid","/wiki/Isoleucine","/wiki/2,3-Dihydroxy-3-methylpentanoic_acid","/wiki/2-Methylbutyryl-CoA","/wiki/Tiglyl-CoA","/wiki/2-Methylacetoacetyl-CoA","/wiki/Methionine","/wiki/Methionine#Generation_of_homocysteine","/wiki/S-Adenosyl_methionine","/wiki/S-Adenosyl-L-homocysteine","/wiki/Homocysteine","/wiki/Methionine#Conversion_to_cysteine","/wiki/Cystathionine","/wiki/Alpha-Ketobutyric_acid","/wiki/Cysteine","/wiki/Threonine","/wiki/Alpha-Ketobutyric_acid","/wiki/Propionyl-CoA","/wiki/Methylmalonyl-CoA","/wiki/Fumarate","/wiki/Phenylalanine","/wiki/Tyrosine","/wiki/4-Hydroxyphenylpyruvic_acid","/wiki/Homogentisic_acid","/wiki/4-Maleylacetoacetate","/wiki/Oxaloacetate","/wiki/Urea_cycle","/wiki/Cysteine_metabolism","/wiki/Cysteine_sulfinic_acid","/wiki/Template:Medicine_navs","/wiki/Inborn_error_of_metabolism","/wiki/Template:Metabolism","/wiki/Template:Citric_acid_cycle_enzymes_and_ETC","/wiki/Template:Glycolysis_enzymes","/wiki/Template:Glycogenesis_and_glycogenolysis_enzymes","/wiki/Template:Fructose_and_galactose_metabolism_enzymes","/wiki/Template:Pentose_phosphate_pathway_enzymes","/wiki/Template:Glycoprotein_metabolism_enzymes","/wiki/Template:Proteoglycan_metabolism_enzymes","/wiki/Template:Lipid_metabolism_enzymes","/wiki/Template:Phospholipid_metabolism","/wiki/Template:Cholesterol_and_steroid_metabolism_enzymes","/wiki/Template:Lipoprotein_metabolism","/wiki/Template:Glycolipid/sphingolipid_metabolism_enzymes","/wiki/Template:Eicosanoid_metabolism_enzymes","/wiki/Template:Amino_acid_metabolism_enzymes","/wiki/Template:Urea_cycle_enzymes","/wiki/Template:Nucleotide_metabolism_enzymes","/wiki/Template:Porphyrin_metabolism_enzymes","/wiki/Template:Disorders_of_TCA_and_ETC","/wiki/Template:Inborn_errors_of_carbohydrate_metabolism","/wiki/Template:Glycoprotein_disorders","/wiki/Template:Proteoglycan_disorders","/wiki/Template:Fatty-acid_metabolism_disorders","/wiki/Template:Phospholipid_metabolism_disorders","/wiki/Template:Defects_of_cholesterol_and_steroid_metabolism","/wiki/Template:Lipid_metabolism_disorders","/wiki/Template:Lipid_storage_disorders","/wiki/Template:Eicosanoid_metabolism_disorders","/wiki/Template:Amino_acid_metabolic_pathology","/wiki/Template:Inborn_errors_of_purine-pyrimidine_metabolism","/wiki/Template:Heme_metabolism_disorders","/wiki/Template:Eponymous_medical_signs_for_endocrinology,_nutrition,_and_metabolism","/wiki/ATC_code_A16","/wiki/Template:Lipid_modifying_agents","/wiki/Template:Citric_acid_cycle","/wiki/Template:Glycolysis","/wiki/Template:Glycogenesis_and_glycogenolysis_metabolic_intermediates","/wiki/Template:Fructose_and_galactose_metabolic_intermediates","/wiki/Template:Pentose_phosphate_pathway_intermediates","/wiki/Template:Glycoproteins","/wiki/Template:Glycosaminoglycans","/wiki/Template:Fatty-acid_metabolism_intermediates","/wiki/Template:Phospholipids","/wiki/Template:Cholesterol_and_steroid_intermediates","/wiki/Template:Sphingolipids","/wiki/Template:Eicosanoids","/wiki/Template:Amino_acid_metabolism_intermediates","/wiki/Template:Urea_cycle","/wiki/Template:Nucleotide_metabolism_intermediates","/wiki/Template:Heme_metabolism_intermediates","/wiki/Biochemistry","/wiki/Template:Metabolism","/wiki/Template:Carbohydrates","/wiki/Template:Alcohols","/wiki/Template:Glycoproteins","/wiki/Template:Glycosides","/wiki/Template:Lipids","/wiki/Template:Eicosanoids","/wiki/Template:Fatty_acids","/wiki/Template:Fatty-acid_metabolism_intermediates","/wiki/Template:Phospholipids","/wiki/Template:Sphingolipids","/wiki/Template:Cholesterol_and_steroid_intermediates","/wiki/Template:Nucleic_acids","/wiki/Template:Nucleobases,_nucleosides,_and_nucleotides","/wiki/Template:Nucleotide_metabolism_intermediates","/wiki/Template:Protein_topics","/wiki/Template:AminoAcids","/wiki/Template:Amino_acid_metabolism_intermediates","/wiki/Template:Tetrapyrroles","/wiki/Template:Heme_metabolism_intermediates","http://en.wikipedia.org/w/index.php?title=Anthranilic_acid&oldid=540314140","/wiki/Help:Categories","/wiki/Category:Vitamins","/wiki/Category:Anthranilic_acids","/wiki/Category:Chemboxes_which_contain_changes_to_verified_fields","/w/index.php?title=Special:UserLogin&returnto=Anthranilic+acid&type=signup","/w/index.php?title=Special:UserLogin&returnto=Anthranilic+acid","/wiki/Anthranilic_acid","/wiki/Talk:Anthranilic_acid","#","/wiki/Anthranilic_acid","/w/index.php?title=Anthranilic_acid&action=edit","/w/index.php?title=Anthranilic_acid&action=history","#","/w/index.php","//bits.wikimedia.org/static-1.21wmf11/skins/vector/images/search-ltr.png?303-4","/wiki/Main_Page","/wiki/Main_Page","/wiki/Portal:Contents","/wiki/Portal:Featured_content","/wiki/Portal:Current_events","/wiki/Special:Random","//donate.wikimedia.org/wiki/Special:FundraiserRedirector?utm_source=donate&utm_medium=sidebar&utm_campaign=C13_en.wikipedia.org&uselang=en","/wiki/Help:Contents","/wiki/Wikipedia:About","/wiki/Wikipedia:Community_portal","/wiki/Special:RecentChanges","/wiki/Wikipedia:Contact_us","/wiki/Special:WhatLinksHere/Anthranilic_acid","/wiki/Special:RecentChangesLinked/Anthranilic_acid","/wiki/Wikipedia:File_Upload_Wizard","/wiki/Special:SpecialPages","/w/index.php?title=Anthranilic_acid&oldid=540314140","/w/index.php?title=Anthranilic_acid&action=info","/w/index.php?title=Special:Cite&page=Anthranilic_acid&id=540314140","/w/index.php?title=Special:Book&bookcmd=book_creator&referer=Anthranilic+acid","/w/index.php?title=Special:Book&bookcmd=render_article&arttitle=Anthranilic+acid&oldid=540314140&writer=rl","/w/index.php?title=Anthranilic_acid&printable=yes","//de.wikipedia.org/wiki/Anthranils%C3%A4ure","//es.wikipedia.org/wiki/%C3%81cido_antran%C3%ADlico","//fr.wikipedia.org/wiki/Acide_anthranilique","//it.wikipedia.org/wiki/Acido_antranilico","//hu.wikipedia.org/wiki/Antranilsav","//nl.wikipedia.org/wiki/Antranilzuur","//ja.wikipedia.org/wiki/%E3%82%A2%E3%83%B3%E3%83%88%E3%83%A9%E3%83%8B%E3%83%AB%E9%85%B8","//no.wikipedia.org/wiki/Antranilsyre","//pl.wikipedia.org/wiki/Kwas_antranilowy","//pt.wikipedia.org/wiki/%C3%81cido_antran%C3%ADlico","//ru.wikipedia.org/wiki/%D0%90%D0%BD%D1%82%D1%80%D0%B0%D0%BD%D0%B8%D0%BB%D0%BE%D0%B2%D0%B0%D1%8F_%D0%BA%D0%B8%D1%81%D0%BB%D0%BE%D1%82%D0%B0","//fi.wikipedia.org/wiki/Antraniilihappo","//zh.wikipedia.org/wiki/%E9%82%BB%E6%B0%A8%E5%9F%BA%E8%8B%AF%E7%94%B2%E9%85%B8","//www.wikidata.org/wiki/Special:ItemByTitle/enwiki/Anthranilic acid","//en.wikipedia.org/wiki/Wikipedia:Text_of_Creative_Commons_Attribution-ShareAlike_3.0_Unported_License","//creativecommons.org/licenses/by-sa/3.0/","//wikimediafoundation.org/wiki/Terms_of_Use","//www.wikimediafoundation.org/","//en.wikipedia.org/wiki/Wikipedia:Contact_us","//wikimediafoundation.org/wiki/Privacy_policy","/wiki/Wikipedia:About","/wiki/Wikipedia:General_disclaimer","http://en.m.wikipedia.org/wiki/Anthranilic_acid","//wikimediafoundation.org/","//bits.wikimedia.org/images/wikimedia-button.png","//www.mediawiki.org/","//bits.wikimedia.org/static-1.21wmf11/skins/common/images/poweredby_mediawiki_88x31.png","//bits.wikimedia.org/en.wikipedia.org/load.php?debug=false&lang=en&modules=skins.vector&only=scripts&skin=vector&*","/w/index.php?title=MediaWiki:Gadget-ReferenceTooltips.js&action=raw&ctype=text/javascript&508635914","//bits.wikimedia.org/en.wikipedia.org/load.php?debug=false&lang=en&modules=site&only=scripts&skin=vector&*"],"instances":[],"pdf":[],"categories":["Vitamins","Anthranilic acids|"],"headings":["Synthesis","Biological role","Uses","See also","References"],"image":["//upload.wikimedia.org/wikipedia/commons/thumb/a/a4/Anthranilic_acid_2.svg/160px-Anthranilic_acid_2.svg.png","//upload.wikimedia.org/wikipedia/commons/thumb/4/46/2-Aminobenzoic-acid-3D-balls-B.png/170px-2-Aminobenzoic-acid-3D-balls-B.png","//upload.wikimedia.org/wikipedia/en/thumb/f/fb/Yes_check.svg/7px-Yes_check.svg.png","//upload.wikimedia.org/wikipedia/en/thumb/f/fb/Yes_check.svg/7px-Yes_check.svg.png","//upload.wikimedia.org/wikipedia/en/thumb/f/fb/Yes_check.svg/7px-Yes_check.svg.png","//upload.wikimedia.org/wikipedia/en/thumb/f/fb/Yes_check.svg/7px-Yes_check.svg.png","//upload.wikimedia.org/wikipedia/en/thumb/f/fb/Yes_check.svg/7px-Yes_check.svg.png","//upload.wikimedia.org/wikipedia/en/thumb/f/fb/Yes_check.svg/7px-Yes_check.svg.png","//upload.wikimedia.org/wikipedia/en/thumb/f/fb/Yes_check.svg/7px-Yes_check.svg.png","//upload.wikimedia.org/wikipedia/commons/thumb/6/6f/NFPA_704.svg/75px-NFPA_704.svg.png","//upload.wikimedia.org/wikipedia/commons/thumb/a/a2/X_mark.svg/14px-X_mark.svg.png","//upload.wikimedia.org/wikipedia/en/thumb/f/fb/Yes_check.svg/10px-Yes_check.svg.png","//upload.wikimedia.org/wikipedia/commons/thumb/a/a2/X_mark.svg/10px-X_mark.svg.png","//bits.wikimedia.org/static-1.21wmf11/skins/vector/images/search-ltr.png?303-4","//bits.wikimedia.org/images/wikimedia-button.png","//bits.wikimedia.org/static-1.21wmf11/skins/common/images/poweredby_mediawiki_88x31.png"],"tags":[],"members":[],"related":["Organic_compound","Molecular_formula","Aromatic","Functional_groups","Carboxylic_acid","Amine","Amphoteric","Amino-acid","Vitamin","Phthalimide","Hypobromite","Chorismic_acid","Amino_acid","Tryptophan","Phosphoribosyl_pyrophosphate","Amine_group","Dye","Pigment","Saccharin","Ester","Perfume","Corrosion_inhibitor","Mold_inhibitor","Soya_sauce","Organic_synthesis","Benzyne","DEA_list_of_chemicals","Methaqualone","Kynureninase"]}