{"cursor":"2605","size":15,"audio":[],"currentlang":"en","article":"{{chembox\n| verifiedrevid = 428784276 Name = Molybdenum tetrachloride ImageFile =\n\n|   ImageName = Molybdenum tetrachloride IUPACName = Molybdenum tetrachloride\n|   OtherNames = Molybdenum(IV) chloride Section1 = {{Chembox Identifiers\n|   CASNo_Ref = CASNo = 13320-71-3 PubChem = 83340\n  }}\n| Section2 = {{Chembox Properties Formula = Cl 4Mo MolarMass = 237.752\n| g/mol Appearance = black solid Density = Solubility = Decomposes MeltingPt =\n| 552°C BoilingPt = pKb =\n  }}\n| Section3 = {{Chembox Structure Coordination = CrystalStruct = Dipole =\n  }}\n| Section7 = {{Chembox Hazards ExternalMSDS = EUClass =\n|    =\n|    =\n|\n|   NFPA-H = 3 NFPA-F = 0 NFPA-R = 1 NFPA-O = FlashPt = Non flammable\n  }} }} 'Molybdenum tetrachloride' is the inorganic compound with the\n  empirical formula MoCl 4. The material exists as two polymorphs,\n  a polymeric (\"α\") and a hexameric (\"β\") structures, although neither form\n  is soluble in any solvent without degradation. In each polymorph, the Mo\n  center is octahedral with two terminal chloride ligands and four doubly\n  bridging ligands. Ulrich Müller \"Hexameric Molybdenum Tetrachloride\"\n  Angewandte Chemie International Edition in English 1981, Volume 20, Pages\n  692 - 693. \n\nIt can be prepared from by dechlorination of molybdenum pentachloride using\ntetrachloroethene: E. L. Mccann III, T. M. Brown \"Molybpenum(IV) Chloride\"\nInorganic Syntheses 1970, volume 12, pages 181-186. \n: 2 MoCl 5 + C 2Cl 4 → 2 MoCl 4 +\n: C 2Cl 6\n\nThe acetonitrile adduct, which is a versatile intermediate, can be prepared\ndirectly from the pentachloride: Jonathan R. Dilworth, Raymond L. Richards\n\"The Synthesis of Molybdenum and Tungsten Dinitrogen Complexes\" Inorganic\nSyntheses 1990, volume 28, pages 33-43. \n: 2 MoCl 5 + 5 CH 3CN → 2\n: MoCl 4(CH 3CN) 2 + ClCH 2CN + HCl\nThe MeCN ligands can be exchanged with other ligands:\n: MoCl 4(CH 3CN) 2 + 2 THF →\n: MoCl 4(THF) 2 + 2 CH 3CN\n","linknr":133,"url":"Molybdenum_tetrachloride","recorded":1374961948,"links":["/w/index.php?title=Molybdenum_tetrachloride&action=edit","/w/index.php?title=Molybdenum_tetrachloride&action=edit","//bits.wikimedia.org/favicon/wikipedia.ico","/w/opensearch_desc.php","//en.wikipedia.org/w/api.php?action=rsd","//creativecommons.org/licenses/by-sa/3.0/","/w/index.php?title=Special:RecentChanges&feed=atom","//bits.wikimedia.org/en.wikipedia.org/load.php?debug=false&lang=en&modules=ext.gadget.DRN-wizard%2CReferenceTooltips%2Ccharinsert%2Cteahouse%7Cext.rtlcite%2Cwikihiero%7Cext.uls.nojs%7Cmediawiki.legacy.commonPrint%2Cshared%7Cmw.PopUpMediaTransform%7Cskins.vector&only=styles&skin=vector&*","//bits.wikimedia.org/en.wikipedia.org/load.php?debug=false&lang=en&modules=site&only=styles&skin=vector&*","//bits.wikimedia.org/en.wikipedia.org/load.php?debug=false&lang=en&modules=startup&only=scripts&skin=vector&*","//bits.wikimedia.org/geoiplookup","//meta.wikimedia.org","#mw-navigation","#p-search","/wiki/International_Union_of_Pure_and_Applied_Chemistry_nomenclature","/wiki/CAS_registry_number","http://www.commonchemistry.org/ChemicalDetail.aspx?ref=13320-71-3","//upload.wikimedia.org/wikipedia/en/thumb/f/fb/Yes_check.svg/7px-Yes_check.svg.png","/wiki/PubChem","http://pubchem.ncbi.nlm.nih.gov/summary/summary.cgi?cid=83340","/wiki/Chemical_formula","/wiki/Molar_mass","/wiki/Melting_point","/wiki/Solubility","/wiki/Water","/wiki/NFPA_704","/wiki/File:NFPA_704.svg","//upload.wikimedia.org/wikipedia/commons/thumb/6/6f/NFPA_704.svg/75px-NFPA_704.svg.png","/wiki/Flash_point","//upload.wikimedia.org/wikipedia/en/thumb/f/fb/Yes_check.svg/14px-Yes_check.svg.png","//en.wikipedia.org/w/index.php?title=Special:ComparePages&rev1=428784276&page2=Molybdenum+tetrachloride","/wiki/Wikipedia:WikiProject_Chemicals/Chembox_validation","//upload.wikimedia.org/wikipedia/en/thumb/f/fb/Yes_check.svg/10px-Yes_check.svg.png","//upload.wikimedia.org/wikipedia/commons/thumb/a/a2/X_mark.svg/10px-X_mark.svg.png","/wiki/Standard_state","/wiki/Wikipedia:Chemical_infobox#References","/wiki/Inorganic_compound","#cite_note-1","/wiki/Molybdenum_pentachloride","/wiki/Tetrachloroethene","#cite_note-2","/wiki/Hexachloroethane","/wiki/Acetonitrile","#cite_note-3","/wiki/Ligand","/wiki/THF","/w/index.php?title=Molybdenum_tetrachloride&action=edit&section=1","#cite_ref-1","/wiki/Digital_object_identifier","http://dx.doi.org/10.1002%2Fanie.198106921","#cite_ref-2","/wiki/Digital_object_identifier","http://dx.doi.org/10.1002%2F9780470132432.ch31","#cite_ref-3","/wiki/Digital_object_identifier","http://dx.doi.org/10.1002%2F9780470132593","/wiki/Template:Molybdenum_compounds","/wiki/Template_talk:Molybdenum_compounds","//en.wikipedia.org/w/index.php?title=Template:Molybdenum_compounds&action=edit","/wiki/Molybdenum","/wiki/Molybdenum_hexacarbonyl","/wiki/Molybdenum(II)_chloride","/wiki/Molybdenum(V)_chloride","/wiki/Molybdenum_hexafluoride","/wiki/Molybdenum(IV)_oxide","/wiki/Molybdenum_trioxide","/w/index.php?title=Molybdenum(III)_oxide&action=edit&redlink=1","/w/index.php?title=Molybdenum(V)_oxide&action=edit&redlink=1","/wiki/Molybdenum_disulfide","/wiki/Molybdenum_trisulfide","/wiki/Molybdenum_disilicide","//en.wikipedia.org/w/index.php?title=Special:CentralAutoLogin/start&type=1x1&from=enwiki","http://en.wikipedia.org/w/index.php?title=Molybdenum_tetrachloride&oldid=542923320","/wiki/Help:Categories","/wiki/Category:Molybdenum_compounds","/wiki/Category:Chlorides","/wiki/Category:Metal_halides","/wiki/Category:Chemical_pages_needing_a_structure_drawing","/wiki/Category:Chemical_pages_needing_a_ChemSpiderID","/w/index.php?title=Special:UserLogin&returnto=Molybdenum+tetrachloride&type=signup","/w/index.php?title=Special:UserLogin&returnto=Molybdenum+tetrachloride","/wiki/Molybdenum_tetrachloride","/wiki/Talk:Molybdenum_tetrachloride","#","/wiki/Molybdenum_tetrachloride","/w/index.php?title=Molybdenum_tetrachloride&action=edit","/w/index.php?title=Molybdenum_tetrachloride&action=history","#","/w/index.php","//bits.wikimedia.org/static-1.22wmf10/skins/vector/images/search-ltr.png?303-4","/wiki/Main_Page","/wiki/Main_Page","/wiki/Portal:Contents","/wiki/Portal:Featured_content","/wiki/Portal:Current_events","/wiki/Special:Random","//donate.wikimedia.org/wiki/Special:FundraiserRedirector?utm_source=donate&utm_medium=sidebar&utm_campaign=C13_en.wikipedia.org&uselang=en","/wiki/Help:Contents","/wiki/Wikipedia:About","/wiki/Wikipedia:Community_portal","/wiki/Special:RecentChanges","//en.wikipedia.org/wiki/Wikipedia:Contact_us","/wiki/Special:WhatLinksHere/Molybdenum_tetrachloride","/wiki/Special:RecentChangesLinked/Molybdenum_tetrachloride","/wiki/Wikipedia:File_Upload_Wizard","/wiki/Special:SpecialPages","/w/index.php?title=Molybdenum_tetrachloride&oldid=542923320","/w/index.php?title=Molybdenum_tetrachloride&action=info","//www.wikidata.org/wiki/Q2350349","/w/index.php?title=Special:Cite&page=Molybdenum_tetrachloride&id=542923320","/w/index.php?title=Special:Book&bookcmd=book_creator&referer=Molybdenum+tetrachloride","/w/index.php?title=Special:Book&bookcmd=render_article&arttitle=Molybdenum+tetrachloride&oldid=542923320&writer=rl","/w/index.php?title=Molybdenum_tetrachloride&printable=yes","//de.wikipedia.org/wiki/Molybd%C3%A4n(IV)-chlorid","//fa.wikipedia.org/wiki/%D8%AA%D8%AA%D8%B1%D8%A7%DA%A9%D9%84%D8%B1%DB%8C%D8%AF_%D9%85%D9%88%D9%84%DB%8C%D8%A8%D8%AF%D9%86","//nl.wikipedia.org/wiki/Molybdeen(IV)chloride","//ru.wikipedia.org/wiki/%D0%A5%D0%BB%D0%BE%D1%80%D0%B8%D0%B4_%D0%BC%D0%BE%D0%BB%D0%B8%D0%B1%D0%B4%D0%B5%D0%BD%D0%B0(IV)","#","//www.wikidata.org/wiki/Q2350349#sitelinks-wikipedia","//en.wikipedia.org/wiki/Wikipedia:Text_of_Creative_Commons_Attribution-ShareAlike_3.0_Unported_License","//creativecommons.org/licenses/by-sa/3.0/","//wikimediafoundation.org/wiki/Terms_of_Use","//wikimediafoundation.org/wiki/Privacy_policy","//www.wikimediafoundation.org/","//wikimediafoundation.org/wiki/Privacy_policy","/wiki/Wikipedia:About","/wiki/Wikipedia:General_disclaimer","//en.wikipedia.org/wiki/Wikipedia:Contact_us","//en.m.wikipedia.org/wiki/Molybdenum_tetrachloride","//wikimediafoundation.org/","//bits.wikimedia.org/images/wikimedia-button.png","//www.mediawiki.org/","//bits.wikimedia.org/static-1.22wmf10/skins/common/images/poweredby_mediawiki_88x31.png","//bits.wikimedia.org/en.wikipedia.org/load.php?debug=false&lang=en&modules=site&only=scripts&skin=vector&*"],"instances":[],"pdf":[],"categories":["Molybdenum compounds","Chlorides","Metal halides"],"headings":["References"],"image":["//upload.wikimedia.org/wikipedia/en/thumb/f/fb/Yes_check.svg/7px-Yes_check.svg.png","//upload.wikimedia.org/wikipedia/commons/thumb/6/6f/NFPA_704.svg/75px-NFPA_704.svg.png","//upload.wikimedia.org/wikipedia/en/thumb/f/fb/Yes_check.svg/14px-Yes_check.svg.png","//upload.wikimedia.org/wikipedia/en/thumb/f/fb/Yes_check.svg/10px-Yes_check.svg.png","//upload.wikimedia.org/wikipedia/commons/thumb/a/a2/X_mark.svg/10px-X_mark.svg.png","//en.wikipedia.org/w/index.php?title=Special:CentralAutoLogin/start&type=1x1&from=enwiki","//bits.wikimedia.org/static-1.22wmf10/skins/vector/images/search-ltr.png?303-4","//bits.wikimedia.org/images/wikimedia-button.png","//bits.wikimedia.org/static-1.22wmf10/skins/common/images/poweredby_mediawiki_88x31.png"],"tags":[],"members":[],"related":["Inorganic_compound","Molybdenum_pentachloride","Tetrachloroethene","Hexachloroethane","Acetonitrile","Ligand","THF"]}