{"cursor":"5890","size":15,"audio":[],"currentlang":"en","article":"{{chembox\n| Verifiedfields = changed verifiedrevid = 415853613 Reference= [[Merck\n| Index]], 11th Edition, '6243' Name = Myrcene ImageFile = Myrcene beta\n| straight acsv.svg ImageSize = 220px ImageName = Beta-myrcene, skeletal formula\n| ImageFile1 = Myrcene-3D-balls.png ImageSize1 = 230px ImageName1 = Beta-\n| myrcene, ball-and-stick model IUPACName = 7-Methyl-3-methylene-1,6-octadiene\n| Section1 = {{Chembox Identifiers ChemSpiderID_Ref = ChemSpiderID = 28993\n| PubChem = 31253 KEGG_Ref = KEGG = C06074 InChI = 1/C10H16/c1-5-10(4)8-6-7-9(2)3/h5,7H,1,4,6,8H2,2-\n| 3H3 InChIKey = UAHWPYUMFXYFJY-UHFFFAOYAT ChEMBL_Ref = ChEMBL = 455491\n| StdInChI_Ref = StdInChI = 1S/C10H16/c1-5-10(4)8-6-7-9(2)3/h5,7H,1,4,6,8H2,2-\n| 3H3 StdInChIKey_Ref = StdInChIKey = UAHWPYUMFXYFJY-UHFFFAOYSA-N CASNo_Ref =\n| CASNo = 123-35-3 ChEBI_Ref = ChEBI = 17221 SMILES = CC(=CCCC(=C)C=C)C\n}}\n| Section2 = {{Chembox Properties C=10|H=16 Density = 0.794 g/cm 3\n| MeltingPt = ","linknr":215,"url":"Myrcene","recorded":1364044796,"links":["/w/index.php?title=Myrcene&action=edit","/w/index.php?title=Myrcene&action=edit","//en.wikipedia.org/apple-touch-icon.png","//bits.wikimedia.org/favicon/wikipedia.ico","/w/opensearch_desc.php","//en.wikipedia.org/w/api.php?action=rsd","//creativecommons.org/licenses/by-sa/3.0/","/w/index.php?title=Special:RecentChanges&feed=atom","//bits.wikimedia.org/en.wikipedia.org/load.php?debug=false&lang=en&modules=ext.gadget.DRN-wizard%2CReferenceTooltips%2Ccharinsert%2Cteahouse%7Cext.wikihiero%7Cmediawiki.legacy.commonPrint%2Cshared%7Cmw.PopUpMediaTransform%7Cskins.vector&only=styles&skin=vector&*","//bits.wikimedia.org/en.wikipedia.org/load.php?debug=false&lang=en&modules=site&only=styles&skin=vector&*","//bits.wikimedia.org/en.wikipedia.org/load.php?debug=false&lang=en&modules=startup&only=scripts&skin=vector&*","//bits.wikimedia.org/geoiplookup","//meta.wikimedia.org","#mw-head","#p-search","#cite_note-1","/wiki/File:Myrcene_beta_straight_acsv.svg","//upload.wikimedia.org/wikipedia/commons/thumb/1/18/Myrcene_beta_straight_acsv.svg/220px-Myrcene_beta_straight_acsv.svg.png","/wiki/File:Myrcene-3D-balls.png","//upload.wikimedia.org/wikipedia/commons/thumb/b/be/Myrcene-3D-balls.png/230px-Myrcene-3D-balls.png","/wiki/International_Union_of_Pure_and_Applied_Chemistry_nomenclature","/wiki/CAS_registry_number","http://www.commonchemistry.org/ChemicalDetail.aspx?ref=123-35-3","//upload.wikimedia.org/wikipedia/en/thumb/f/fb/Yes_check.svg/7px-Yes_check.svg.png","/wiki/PubChem","http://pubchem.ncbi.nlm.nih.gov/summary/summary.cgi?cid=31253","/wiki/ChemSpider","http://www.chemspider.com/28993","//upload.wikimedia.org/wikipedia/en/thumb/f/fb/Yes_check.svg/7px-Yes_check.svg.png","/wiki/KEGG","http://www.kegg.jp/entry/C06074","//upload.wikimedia.org/wikipedia/en/thumb/f/fb/Yes_check.svg/7px-Yes_check.svg.png","/wiki/ChEBI","https://www.ebi.ac.uk/chebi/searchId.do?chebiId=17221","//upload.wikimedia.org/wikipedia/commons/thumb/a/a2/X_mark.svg/7px-X_mark.svg.png","/wiki/ChEMBL","https://www.ebi.ac.uk/chembldb/index.php/compound/inspect/CHEMBL455491","//upload.wikimedia.org/wikipedia/en/thumb/f/fb/Yes_check.svg/7px-Yes_check.svg.png","/wiki/Jmol","http://chemapps.stolaf.edu/jmol/jmol.php?model=CC%28%3DCCCC%28%3DC%29C%3DC%29C","/wiki/Simplified_molecular-input_line-entry_system","/wiki/International_Chemical_Identifier","//upload.wikimedia.org/wikipedia/en/thumb/f/fb/Yes_check.svg/7px-Yes_check.svg.png","//upload.wikimedia.org/wikipedia/en/thumb/f/fb/Yes_check.svg/7px-Yes_check.svg.png","/wiki/Molecular_formula","/wiki/Molar_mass","/wiki/Density","/wiki/Melting_point","/wiki/Boiling_point","#cite_note-Ullmann-2","//upload.wikimedia.org/wikipedia/commons/thumb/a/a2/X_mark.svg/14px-X_mark.svg.png","//en.wikipedia.org/w/index.php?title=Special:ComparePages&rev1=415853613&page2=Myrcene","/wiki/Wikipedia:WikiProject_Chemicals/Chembox_validation","//upload.wikimedia.org/wikipedia/en/thumb/f/fb/Yes_check.svg/10px-Yes_check.svg.png","//upload.wikimedia.org/wikipedia/commons/thumb/a/a2/X_mark.svg/10px-X_mark.svg.png","/wiki/Standard_state","/wiki/Wikipedia:Chemical_infobox#References","/wiki/Alkene","/wiki/Organic_compound","/wiki/Hydrocarbon","/wiki/Terpene","/wiki/Dimer_(chemistry)","/wiki/Isoprene","/wiki/Essential_oil","/wiki/Bay_leaf","/wiki/Ylang-ylang","/wiki/Wild_thyme","/wiki/Parsley","#cite_note-3","/wiki/Hops","#cite_note-csoc-4","#cite_note-5","/wiki/Myrcia","#cite_note-Behr-6","#Biosynthesis_and_production","#Use_in_fragrance_industry","#Partial_list_of_the_plants_that_contain_myrcene","#See_also","#References","/w/index.php?title=Myrcene&action=edit&section=1","/wiki/Geraniol","/wiki/Wild_thyme","/wiki/Pyrolysis","/wiki/Pinene","/wiki/Turpentine","#cite_note-Behr-6","/w/index.php?title=Myrcene&action=edit&section=2","/wiki/Polymer","/wiki/Tocopherol","/wiki/Menthol","/wiki/Citral","/wiki/Citronellol","/wiki/Citronellal","/wiki/Geraniol","/wiki/Nerol","/wiki/Linalool","/wiki/Hydrogen_chloride","/wiki/Acetate","/wiki/Hydrolysis","/wiki/Myrcenol","/wiki/Lavender","/wiki/Hydroamination","/wiki/Palladium","/wiki/Amine","/wiki/Diels-Alder_reaction","/wiki/Dienophile","/wiki/Acrolein","/wiki/Cyclohexene","#cite_note-Ullmann-2","/w/index.php?title=Myrcene&action=edit&section=3","#cite_note-Behr-6","/wiki/Cannabis","/wiki/Houttuynia","/wiki/Mangoes","/wiki/Hops","/wiki/Lemon_grass","/wiki/West_Indian_Bay_Tree","/wiki/Verbena","/wiki/Mercia","/wiki/Thyme","/w/index.php?title=Myrcene&action=edit&section=4","/wiki/Perfume_allergy","/w/index.php?title=Myrcene&action=edit&section=5","#cite_ref-1","/wiki/Merck_Index","#cite_ref-Ullmann_2-0","#cite_ref-Ullmann_2-1","/wiki/Digital_object_identifier","http://dx.doi.org/10.1002%2F14356007.a11_141","#cite_ref-3","http://www.freepatentsonline.com/article/Estonian-Academy-Sciences-Chemistry/198707084.html","#cite_ref-csoc_4-0","/wiki/Journal_of_Agricultural_and_Food_Chemistry","/wiki/Digital_object_identifier","http://dx.doi.org/10.1021%2Fjf950577d","#cite_ref-5","http://realbeer.com/hops/aroma.html","http://realbeer.com/hops/aroma.html","#cite_ref-Behr_6-0","#cite_ref-Behr_6-1","#cite_ref-Behr_6-2","/wiki/Digital_object_identifier","http://dx.doi.org/10.1002%2Fcssc.200900186","http://en.wikipedia.org/w/index.php?title=Myrcene&oldid=544206262","/wiki/Help:Categories","/wiki/Category:Chemical_compounds_found_in_Annonaceae","/wiki/Category:Chemical_compounds_found_in_Cannabaceae","/wiki/Category:Chemical_compounds_found_in_Lamiaceae","/wiki/Category:Flavors","/wiki/Category:Alkenes","/wiki/Category:Hydrocarbons","/wiki/Category:Perfume_ingredients","/wiki/Category:Monoterpenes","/wiki/Category:Articles_with_changed_EBI_identifier","/wiki/Category:Chemboxes_which_contain_changes_to_verified_fields","/w/index.php?title=Special:UserLogin&returnto=Myrcene&type=signup","/w/index.php?title=Special:UserLogin&returnto=Myrcene","/wiki/Myrcene","/wiki/Talk:Myrcene","#","/wiki/Myrcene","/w/index.php?title=Myrcene&action=edit","/w/index.php?title=Myrcene&action=history","#","/w/index.php","//bits.wikimedia.org/static-1.21wmf11/skins/vector/images/search-ltr.png?303-4","/wiki/Main_Page","/wiki/Main_Page","/wiki/Portal:Contents","/wiki/Portal:Featured_content","/wiki/Portal:Current_events","/wiki/Special:Random","//donate.wikimedia.org/wiki/Special:FundraiserRedirector?utm_source=donate&utm_medium=sidebar&utm_campaign=C13_en.wikipedia.org&uselang=en","/wiki/Help:Contents","/wiki/Wikipedia:About","/wiki/Wikipedia:Community_portal","/wiki/Special:RecentChanges","/wiki/Wikipedia:Contact_us","/wiki/Special:WhatLinksHere/Myrcene","/wiki/Special:RecentChangesLinked/Myrcene","/wiki/Wikipedia:File_Upload_Wizard","/wiki/Special:SpecialPages","/w/index.php?title=Myrcene&oldid=544206262","/w/index.php?title=Myrcene&action=info","/w/index.php?title=Special:Cite&page=Myrcene&id=544206262","/w/index.php?title=Special:Book&bookcmd=book_creator&referer=Myrcene","/w/index.php?title=Special:Book&bookcmd=render_article&arttitle=Myrcene&oldid=544206262&writer=rl","/w/index.php?title=Myrcene&printable=yes","//de.wikipedia.org/wiki/Myrcen","//fa.wikipedia.org/wiki/%D9%85%DB%8C%D8%B1%D8%B3%D9%86","//it.wikipedia.org/wiki/Mircene","//lt.wikipedia.org/wiki/Mircenas","//nl.wikipedia.org/wiki/Myrceen","//ja.wikipedia.org/wiki/%E3%83%9F%E3%83%AB%E3%82%BB%E3%83%B3","//pl.wikipedia.org/wiki/Mircen","//pt.wikipedia.org/wiki/Mirceno","//ru.wikipedia.org/wiki/%D0%9C%D0%B8%D1%80%D1%86%D0%B5%D0%BD","//fi.wikipedia.org/wiki/Myrseeni","//zh.wikipedia.org/wiki/%E9%A6%99%E5%8F%B6%E7%83%AF","//www.wikidata.org/wiki/Special:ItemByTitle/enwiki/Myrcene","//en.wikipedia.org/wiki/Wikipedia:Text_of_Creative_Commons_Attribution-ShareAlike_3.0_Unported_License","//creativecommons.org/licenses/by-sa/3.0/","//wikimediafoundation.org/wiki/Terms_of_Use","//www.wikimediafoundation.org/","//en.wikipedia.org/wiki/Wikipedia:Contact_us","//wikimediafoundation.org/wiki/Privacy_policy","/wiki/Wikipedia:About","/wiki/Wikipedia:General_disclaimer","http://en.m.wikipedia.org/wiki/Myrcene","//wikimediafoundation.org/","//bits.wikimedia.org/images/wikimedia-button.png","//www.mediawiki.org/","//bits.wikimedia.org/static-1.21wmf11/skins/common/images/poweredby_mediawiki_88x31.png","//bits.wikimedia.org/en.wikipedia.org/load.php?debug=false&lang=en&modules=skins.vector&only=scripts&skin=vector&*","/w/index.php?title=MediaWiki:Gadget-ReferenceTooltips.js&action=raw&ctype=text/javascript&508635914","//bits.wikimedia.org/en.wikipedia.org/load.php?debug=false&lang=en&modules=site&only=scripts&skin=vector&*"],"instances":["chemistry"],"pdf":[],"categories":["Chemical compounds found in Annonaceae","Chemical compounds found in Cannabaceae","Chemical compounds found in Lamiaceae","Flavors","Alkenes","Hydrocarbons","Perfume ingredients","Monoterpenes"],"headings":["Biosynthesis and production","Use in fragrance industry","Partial list of the plants that contain myrcene","See also","References"],"image":["//upload.wikimedia.org/wikipedia/commons/thumb/1/18/Myrcene_beta_straight_acsv.svg/220px-Myrcene_beta_straight_acsv.svg.png","//upload.wikimedia.org/wikipedia/commons/thumb/b/be/Myrcene-3D-balls.png/230px-Myrcene-3D-balls.png","//upload.wikimedia.org/wikipedia/en/thumb/f/fb/Yes_check.svg/7px-Yes_check.svg.png","//upload.wikimedia.org/wikipedia/en/thumb/f/fb/Yes_check.svg/7px-Yes_check.svg.png","//upload.wikimedia.org/wikipedia/en/thumb/f/fb/Yes_check.svg/7px-Yes_check.svg.png","//upload.wikimedia.org/wikipedia/commons/thumb/a/a2/X_mark.svg/7px-X_mark.svg.png","//upload.wikimedia.org/wikipedia/en/thumb/f/fb/Yes_check.svg/7px-Yes_check.svg.png","//upload.wikimedia.org/wikipedia/en/thumb/f/fb/Yes_check.svg/7px-Yes_check.svg.png","//upload.wikimedia.org/wikipedia/en/thumb/f/fb/Yes_check.svg/7px-Yes_check.svg.png","//upload.wikimedia.org/wikipedia/commons/thumb/a/a2/X_mark.svg/14px-X_mark.svg.png","//upload.wikimedia.org/wikipedia/en/thumb/f/fb/Yes_check.svg/10px-Yes_check.svg.png","//upload.wikimedia.org/wikipedia/commons/thumb/a/a2/X_mark.svg/10px-X_mark.svg.png","//bits.wikimedia.org/static-1.21wmf11/skins/vector/images/search-ltr.png?303-4","//bits.wikimedia.org/images/wikimedia-button.png","//bits.wikimedia.org/static-1.21wmf11/skins/common/images/poweredby_mediawiki_88x31.png"],"tags":[["dimer","chemistry"]],"members":["dimer"],"related":["Alkene","Organic_compound","Hydrocarbon","Terpene","Dimer_(chemistry)","Isoprene","Essential_oil","Bay_leaf","Ylang-ylang","Wild_thyme","Parsley","Hops","Myrcia","Geraniol","Wild_thyme","Pyrolysis","Pinene","Turpentine","Polymer","Tocopherol","Menthol","Citral","Citronellol","Citronellal","Geraniol","Nerol","Linalool","Hydrogen_chloride","Acetate","Hydrolysis","Myrcenol","Lavender","Hydroamination","Palladium","Amine","Diels-Alder_reaction","Dienophile","Acrolein","Cyclohexene","Cannabis","Houttuynia","Mangoes","Hops","Lemon_grass","West_Indian_Bay_Tree","Verbena","Mercia","Thyme","Perfume_allergy"]}