{"cursor":"2995","size":15,"audio":[],"currentlang":"en","article":"\n{{Chembox\n| verifiedrevid = 444023648 ImageFile = Neo-inositol.svg ImageSize = Name = neo-\n| Inositol IUPACName = OtherNames = Section1 = {{Chembox Identifiers CASNo =\n| PubChem = CASNo = 488-54-0 PubChem = ChemSpiderID_Ref = ChemSpiderID =\n| 10199749 ChEBI_Ref = ChEBI = 25492 SMILES =\n| O[C@H]1[C@@H](O)[C@H](O)[C@H](O)[C@H](O)[C@H]1O StdInChI_Ref = StdInChI = 1S/C6H12O6/c7-1-2(8)4(10)6(12)5(11)3(1)9/h1-12H/t1-,2-,3-,4-,5-,6-\n| StdInChIKey_Ref = StdInChIKey = CDAISMWEOUEBRE-DCLYFUHFSA-N\n}}\n| Section2 = {{Chembox Properties C=6|H=12|O=6 Appearance = Density = MeltingPt\n| = 588 K  BoilingPt = Solubility = }} Section3 = {{Chembox Hazards\n| MainHazards = Irritating to eyes, respiratory system and skin.\n| FlashPt = Autoignition = }}\n}}\n\n'neo-Inositol' is one of the stereoisomers of inositol. It is one of the nine\nisomeric forms of cyclohexanehexol; a group of small and chemically very stable\npolar molecules that have versatile properties. This stereoisomer is\nnaturally occurring, but only in small amounts. It is also known as (1s,2R,3R,4s,5S,6S)-cyclohexane-1,2,3,4,5,6-\nhexol or 1,2,3/4,5,6-cyclohexanehexol in the IUPAC naming system.\n","linknr":128,"url":"Neo-Inositol","recorded":1374781483,"links":["/w/index.php?title=Neo-Inositol&action=edit","/w/index.php?title=Neo-Inositol&action=edit","//bits.wikimedia.org/favicon/wikipedia.ico","/w/opensearch_desc.php","//en.wikipedia.org/w/api.php?action=rsd","//creativecommons.org/licenses/by-sa/3.0/","/w/index.php?title=Special:RecentChanges&feed=atom","//bits.wikimedia.org/en.wikipedia.org/load.php?debug=false&lang=en&modules=ext.gadget.DRN-wizard%2CReferenceTooltips%2Ccharinsert%2Cteahouse%7Cext.rtlcite%2Cwikihiero%7Cext.uls.nojs%7Cmediawiki.legacy.commonPrint%2Cshared%7Cmw.PopUpMediaTransform%7Cskins.vector&only=styles&skin=vector&*","//bits.wikimedia.org/en.wikipedia.org/load.php?debug=false&lang=en&modules=site&only=styles&skin=vector&*","//bits.wikimedia.org/en.wikipedia.org/load.php?debug=false&lang=en&modules=startup&only=scripts&skin=vector&*","//bits.wikimedia.org/geoiplookup","//meta.wikimedia.org","#mw-navigation","#p-search","/wiki/File:Neo-inositol.svg","//upload.wikimedia.org/wikipedia/commons/thumb/e/e0/Neo-inositol.svg/200px-Neo-inositol.svg.png","/wiki/CAS_registry_number","http://www.commonchemistry.org/ChemicalDetail.aspx?ref=488-54-0","/wiki/ChemSpider","http://www.chemspider.com/10199749","//upload.wikimedia.org/wikipedia/en/thumb/f/fb/Yes_check.svg/7px-Yes_check.svg.png","/wiki/ChEBI","https://www.ebi.ac.uk/chebi/searchId.do?chebiId=25492","//upload.wikimedia.org/wikipedia/en/thumb/f/fb/Yes_check.svg/7px-Yes_check.svg.png","/wiki/Jmol","http://chemapps.stolaf.edu/jmol/jmol.php?model=O%5BC%40H%5D1%5BC%40%40H%5D%28O%29%5BC%40H%5D%28O%29%5BC%40H%5D%28O%29%5BC%40H%5D%28O%29%5BC%40H%5D1O","/wiki/Simplified_molecular-input_line-entry_system","/wiki/International_Chemical_Identifier","//upload.wikimedia.org/wikipedia/en/thumb/f/fb/Yes_check.svg/7px-Yes_check.svg.png","//upload.wikimedia.org/wikipedia/en/thumb/f/fb/Yes_check.svg/7px-Yes_check.svg.png","/wiki/Molecular_formula","/wiki/Molar_mass","/wiki/Melting_point","#cite_note-1","/wiki/Worker_safety_and_health","#cite_note-2","//upload.wikimedia.org/wikipedia/en/thumb/f/fb/Yes_check.svg/14px-Yes_check.svg.png","//en.wikipedia.org/w/index.php?title=Special:ComparePages&rev1=444023648&page2=Neo-Inositol","/wiki/Wikipedia:WikiProject_Chemicals/Chembox_validation","//upload.wikimedia.org/wikipedia/en/thumb/f/fb/Yes_check.svg/10px-Yes_check.svg.png","//upload.wikimedia.org/wikipedia/commons/thumb/a/a2/X_mark.svg/10px-X_mark.svg.png","/wiki/Standard_state","/wiki/Wikipedia:Chemical_infobox#References","/wiki/Stereoisomer","/wiki/Inositol","#cite_note-3","#cite_note-4","/w/index.php?title=Neo-Inositol&action=edit&section=1","/wiki/Allo-Inositol","/wiki/Cis-Inositol","/wiki/D-chiro-Inositol","/wiki/L-chiro-Inositol","/wiki/Epi-Inositol","/wiki/Muco-Inositol","/wiki/Scyllo-Inositol","/w/index.php?title=Neo-Inositol&action=edit&section=2","#cite_ref-1","http://web.ebscohost.com/ehost/pdfviewer/pdfviewer?sid=77fea6df-bbc5-43a6-8b4d-20cd3d2c5b76%40sessionmgr4&vid=4&hid=21","#cite_ref-2","http://www.sigmaaldrich.com/MSDS/MSDS/DisplayMSDSPage.do?country=US&language=en&productNumber=516163&brand=ALDRICH&PageToGoToURL=http%3A%2F%2Fwww.sigmaaldrich.com%2Fcatalog%2Fproduct%2Faldrich%2F516163%3Flang%3Den","#cite_ref-3","http://xa.yimg.com/kq/groups/15186538/1872049761/name/panthini.pdf","#cite_ref-4","http://www.ebi.ac.uk/chebi/searchId.do;jsessionid=B128111F38B12846027AAFB90CCC28A6?chebiId=25492","/wiki/File:Alcohol_general.svg","//upload.wikimedia.org/wikipedia/commons/thumb/d/d4/Alcohol_general.svg/40px-Alcohol_general.svg.png","/wiki/Alcohol","/wiki/Wikipedia:Stub","//en.wikipedia.org/w/index.php?title=Neo-Inositol&action=edit","/wiki/Template:Alcohol-stub","/wiki/Template_talk:Alcohol-stub","//en.wikipedia.org/w/index.php?title=Template:Alcohol-stub&action=edit","//en.wikipedia.org/w/index.php?title=Special:CentralAutoLogin/start&type=1x1&from=enwiki","http://en.wikipedia.org/w/index.php?title=Neo-Inositol&oldid=545735210","/wiki/Help:Categories","/wiki/Category:Inositol","/wiki/Category:Alcohol_stubs","/w/index.php?title=Special:UserLogin&returnto=Neo-Inositol&type=signup","/w/index.php?title=Special:UserLogin&returnto=Neo-Inositol","/wiki/Neo-Inositol","/wiki/Talk:Neo-Inositol","#","/wiki/Neo-Inositol","/w/index.php?title=Neo-Inositol&action=edit","/w/index.php?title=Neo-Inositol&action=history","#","/w/index.php","//bits.wikimedia.org/static-1.22wmf10/skins/vector/images/search-ltr.png?303-4","/wiki/Main_Page","/wiki/Main_Page","/wiki/Portal:Contents","/wiki/Portal:Featured_content","/wiki/Portal:Current_events","/wiki/Special:Random","//donate.wikimedia.org/wiki/Special:FundraiserRedirector?utm_source=donate&utm_medium=sidebar&utm_campaign=C13_en.wikipedia.org&uselang=en","/wiki/Help:Contents","/wiki/Wikipedia:About","/wiki/Wikipedia:Community_portal","/wiki/Special:RecentChanges","//en.wikipedia.org/wiki/Wikipedia:Contact_us","/wiki/Special:WhatLinksHere/Neo-Inositol","/wiki/Special:RecentChangesLinked/Neo-Inositol","/wiki/Wikipedia:File_Upload_Wizard","/wiki/Special:SpecialPages","/w/index.php?title=Neo-Inositol&oldid=545735210","/w/index.php?title=Neo-Inositol&action=info","//www.wikidata.org/wiki/Q3347078","/w/index.php?title=Special:Cite&page=Neo-Inositol&id=545735210","/w/index.php?title=Special:Book&bookcmd=book_creator&referer=Neo-Inositol","/w/index.php?title=Special:Book&bookcmd=render_article&arttitle=Neo-Inositol&oldid=545735210&writer=rl","/w/index.php?title=Neo-Inositol&printable=yes","//fr.wikipedia.org/wiki/N%C3%A9o-inositol","#","//www.wikidata.org/wiki/Q3347078#sitelinks-wikipedia","//en.wikipedia.org/wiki/Wikipedia:Text_of_Creative_Commons_Attribution-ShareAlike_3.0_Unported_License","//creativecommons.org/licenses/by-sa/3.0/","//wikimediafoundation.org/wiki/Terms_of_Use","//wikimediafoundation.org/wiki/Privacy_policy","//www.wikimediafoundation.org/","//wikimediafoundation.org/wiki/Privacy_policy","/wiki/Wikipedia:About","/wiki/Wikipedia:General_disclaimer","//en.wikipedia.org/wiki/Wikipedia:Contact_us","//en.m.wikipedia.org/wiki/Neo-Inositol","//wikimediafoundation.org/","//bits.wikimedia.org/images/wikimedia-button.png","//www.mediawiki.org/","//bits.wikimedia.org/static-1.22wmf10/skins/common/images/poweredby_mediawiki_88x31.png","//bits.wikimedia.org/en.wikipedia.org/load.php?debug=false&lang=en&modules=site&only=scripts&skin=vector&*"],"instances":[],"pdf":["http://xa.yimg.com/kq/groups/15186538/1872049761/name/panthini.pdf"],"categories":["Inositol"],"headings":["See also","References"],"image":["//upload.wikimedia.org/wikipedia/commons/thumb/e/e0/Neo-inositol.svg/200px-Neo-inositol.svg.png","//upload.wikimedia.org/wikipedia/en/thumb/f/fb/Yes_check.svg/7px-Yes_check.svg.png","//upload.wikimedia.org/wikipedia/en/thumb/f/fb/Yes_check.svg/7px-Yes_check.svg.png","//upload.wikimedia.org/wikipedia/en/thumb/f/fb/Yes_check.svg/7px-Yes_check.svg.png","//upload.wikimedia.org/wikipedia/en/thumb/f/fb/Yes_check.svg/7px-Yes_check.svg.png","//upload.wikimedia.org/wikipedia/en/thumb/f/fb/Yes_check.svg/14px-Yes_check.svg.png","//upload.wikimedia.org/wikipedia/en/thumb/f/fb/Yes_check.svg/10px-Yes_check.svg.png","//upload.wikimedia.org/wikipedia/commons/thumb/a/a2/X_mark.svg/10px-X_mark.svg.png","//upload.wikimedia.org/wikipedia/commons/thumb/d/d4/Alcohol_general.svg/40px-Alcohol_general.svg.png","//en.wikipedia.org/w/index.php?title=Special:CentralAutoLogin/start&type=1x1&from=enwiki","//bits.wikimedia.org/static-1.22wmf10/skins/vector/images/search-ltr.png?303-4","//bits.wikimedia.org/images/wikimedia-button.png","//bits.wikimedia.org/static-1.22wmf10/skins/common/images/poweredby_mediawiki_88x31.png"],"tags":[],"members":[],"related":["Stereoisomer","Inositol","Allo-Inositol","Cis-Inositol","D-chiro-Inositol","L-chiro-Inositol","Epi-Inositol","Muco-Inositol","Scyllo-Inositol"]}