{"cursor":"19063","size":15,"audio":[],"currentlang":"en","article":"\n\n\n\n'Neon' is a chemical element with symbol 'Ne' and atomic number 10. It is in\ngroup 18 (noble gases) of the periodic table. Neon is a colorless, odorless\nmonatomic gas under standard conditions, with about two-thirds the density of\nair. It was discovered (along with krypton and xenon) in 1898 as one of the\nthree residual rare inert elements remaining in dry air, after nitrogen, oxygen,\nargon and carbon dioxide are removed. Neon was the second of these three rare\ngases to be discovered, and was immediately recognized as a new element from its\nbright red emission spectrum. Neon's name is derived from Greek words meaning\n\"new one.\" Neon is chemically inert and forms no uncharged chemical compounds.\n\nDuring cosmic nucleogenesis of the elements, large amounts of neon are built up\nfrom the alpha-capture fusion process in stars. Although neon is a very common\nelement in the universe and solar system (it is fifth in cosmic abundance after\nhydrogen, helium, oxygen and carbon), it is very rare on Earth. It composes\nabout 18.2 ppm of air by volume (this is about the same as the molecular or mole\nfraction), and a smaller fraction in the crust. The reason for neon's relative\nscarcity on Earth and the inner (terrestrial) planets, is that neon forms no\ncompounds to fix it to solids, and is highly volatile, therefore escaping from\nthe planetesimals under the warmth of the newly-ignited Sun in the early Solar\nSystem. Even the atmosphere of Jupiter is somewhat depleted of neon, presumably\nfor this reason.\n\nNeon gives a distinct reddish-orange glow when used in either low-voltage neon\nglow lamps or in high-voltage discharge tubes or neon advertising\nsigns. {{cite book|chapter = Phosphors for lamps |title =\nPhosphor Handbook|editor = Shionoya, Shigeo; Yen, William M. |author = Kohmoto,\nKohtaro |publisher = CRC Press|year = 1999|isbn = 978-0-8493-7560-6|url =\nhttp://books.google.com/?id=lWlcJEDukRIC&pg=PA380|pages = 940}} The red\nemission line from neon is also responsible for the well known red light of helium-\nneon lasers. Neon is used in a few plasma tube and refrigerant applications but\nhas few other commercial uses. It is commercially extracted by the fractional\ndistillation of liquid air. It is considerably more expensive than helium, since\nair is its only source.\n","linknr":977,"url":"Neon","recorded":1362477466,"links":279,"instances":["geology","colour"],"pdf":["http://www-d0.fnal.gov/hardware/cal/lvps_info/engineering/elements.pdf","http://www-d0.fnal.gov/hardware/cal/lvps_info/engineering/elements.pdf","http://www-d0.fnal.gov/hardware/cal/lvps_info/engineering/elementmagn.pdf","http://www.allanson.com/wp-content/uploads/Product_PDFs/ANSI_Luminous_footage.pdf","http://www.allanson.com/wp-content/uploads/Product_PDFs/ANSI_Luminous_footage.pdf"],"categories":["Neon|","Chemical elements","Coolants","Noble gases","Refrigerants","Laser gain media"],"headings":["History","Isotopes","Characteristics","Occurrence","Applications","Compounds","See also","References","External links"],"image":["//upload.wikimedia.org/wikipedia/commons/thumb/f/fc/Padlock-silver.svg/20px-Padlock-silver.svg.png","//upload.wikimedia.org/wikipedia/commons/c/ce/Transparent.gif","//upload.wikimedia.org/wikipedia/commons/c/ce/Transparent.gif","//upload.wikimedia.org/wikipedia/commons/c/ce/Transparent.gif","//upload.wikimedia.org/wikipedia/commons/c/ce/Transparent.gif","//upload.wikimedia.org/wikipedia/commons/c/ce/Transparent.gif","//upload.wikimedia.org/wikipedia/commons/c/ce/Transparent.gif","//upload.wikimedia.org/wikipedia/commons/c/ce/Transparent.gif","//upload.wikimedia.org/wikipedia/commons/c/ce/Transparent.gif","//upload.wikimedia.org/wikipedia/commons/c/ce/Transparent.gif","//upload.wikimedia.org/wikipedia/commons/c/ce/Transparent.gif","//upload.wikimedia.org/wikipedia/commons/c/ce/Transparent.gif","//upload.wikimedia.org/wikipedia/commons/c/ce/Transparent.gif","//upload.wikimedia.org/wikipedia/commons/c/ce/Transparent.gif","//upload.wikimedia.org/wikipedia/commons/c/ce/Transparent.gif","//upload.wikimedia.org/wikipedia/commons/c/ce/Transparent.gif","//upload.wikimedia.org/wikipedia/commons/c/ce/Transparent.gif","//upload.wikimedia.org/wikipedia/commons/c/ce/Transparent.gif","//upload.wikimedia.org/wikipedia/commons/c/ce/Transparent.gif","//upload.wikimedia.org/wikipedia/commons/c/ce/Transparent.gif","//upload.wikimedia.org/wikipedia/commons/c/ce/Transparent.gif","//upload.wikimedia.org/wikipedia/commons/c/ce/Transparent.gif","//upload.wikimedia.org/wikipedia/commons/c/ce/Transparent.gif","//upload.wikimedia.org/wikipedia/commons/c/ce/Transparent.gif","//upload.wikimedia.org/wikipedia/commons/c/ce/Transparent.gif","//upload.wikimedia.org/wikipedia/commons/c/ce/Transparent.gif","//upload.wikimedia.org/wikipedia/commons/c/ce/Transparent.gif","//upload.wikimedia.org/wikipedia/commons/c/ce/Transparent.gif","//upload.wikimedia.org/wikipedia/commons/c/ce/Transparent.gif","//upload.wikimedia.org/wikipedia/commons/c/ce/Transparent.gif","//upload.wikimedia.org/wikipedia/commons/c/ce/Transparent.gif","//upload.wikimedia.org/wikipedia/commons/c/ce/Transparent.gif","//upload.wikimedia.org/wikipedia/commons/c/ce/Transparent.gif","//upload.wikimedia.org/wikipedia/commons/c/ce/Transparent.gif","//upload.wikimedia.org/wikipedia/commons/c/ce/Transparent.gif","//upload.wikimedia.org/wikipedia/commons/c/ce/Transparent.gif","//upload.wikimedia.org/wikipedia/commons/c/ce/Transparent.gif","//upload.wikimedia.org/wikipedia/commons/c/ce/Transparent.gif","//upload.wikimedia.org/wikipedia/commons/c/ce/Transparent.gif","//upload.wikimedia.org/wikipedia/commons/c/ce/Transparent.gif","//upload.wikimedia.org/wikipedia/commons/c/ce/Transparent.gif","//upload.wikimedia.org/wikipedia/commons/c/ce/Transparent.gif","//upload.wikimedia.org/wikipedia/commons/c/ce/Transparent.gif","//upload.wikimedia.org/wikipedia/commons/c/ce/Transparent.gif","//upload.wikimedia.org/wikipedia/commons/c/ce/Transparent.gif","//upload.wikimedia.org/wikipedia/commons/c/ce/Transparent.gif","//upload.wikimedia.org/wikipedia/commons/c/ce/Transparent.gif","//upload.wikimedia.org/wikipedia/commons/c/ce/Transparent.gif","//upload.wikimedia.org/wikipedia/commons/c/ce/Transparent.gif","//upload.wikimedia.org/wikipedia/commons/c/ce/Transparent.gif","//upload.wikimedia.org/wikipedia/commons/c/ce/Transparent.gif","//upload.wikimedia.org/wikipedia/commons/c/ce/Transparent.gif","//upload.wikimedia.org/wikipedia/commons/c/ce/Transparent.gif","//upload.wikimedia.org/wikipedia/commons/c/ce/Transparent.gif","//upload.wikimedia.org/wikipedia/commons/c/ce/Transparent.gif","//upload.wikimedia.org/wikipedia/commons/c/ce/Transparent.gif","//upload.wikimedia.org/wikipedia/commons/c/ce/Transparent.gif","//upload.wikimedia.org/wikipedia/commons/c/ce/Transparent.gif","//upload.wikimedia.org/wikipedia/commons/c/ce/Transparent.gif","//upload.wikimedia.org/wikipedia/commons/c/ce/Transparent.gif","//upload.wikimedia.org/wikipedia/commons/c/ce/Transparent.gif","//upload.wikimedia.org/wikipedia/commons/c/ce/Transparent.gif","//upload.wikimedia.org/wikipedia/commons/c/ce/Transparent.gif","//upload.wikimedia.org/wikipedia/commons/c/ce/Transparent.gif","//upload.wikimedia.org/wikipedia/commons/c/ce/Transparent.gif","//upload.wikimedia.org/wikipedia/commons/c/ce/Transparent.gif","//upload.wikimedia.org/wikipedia/commons/c/ce/Transparent.gif","//upload.wikimedia.org/wikipedia/commons/c/ce/Transparent.gif","//upload.wikimedia.org/wikipedia/commons/c/ce/Transparent.gif","//upload.wikimedia.org/wikipedia/commons/c/ce/Transparent.gif","//upload.wikimedia.org/wikipedia/commons/c/ce/Transparent.gif","//upload.wikimedia.org/wikipedia/commons/c/ce/Transparent.gif","//upload.wikimedia.org/wikipedia/commons/c/ce/Transparent.gif","//upload.wikimedia.org/wikipedia/commons/c/ce/Transparent.gif","//upload.wikimedia.org/wikipedia/commons/c/ce/Transparent.gif","//upload.wikimedia.org/wikipedia/commons/c/ce/Transparent.gif","//upload.wikimedia.org/wikipedia/commons/c/ce/Transparent.gif","//upload.wikimedia.org/wikipedia/commons/c/ce/Transparent.gif","//upload.wikimedia.org/wikipedia/commons/c/ce/Transparent.gif","//upload.wikimedia.org/wikipedia/commons/c/ce/Transparent.gif","//upload.wikimedia.org/wikipedia/commons/c/ce/Transparent.gif","//upload.wikimedia.org/wikipedia/commons/c/ce/Transparent.gif","//upload.wikimedia.org/wikipedia/commons/c/ce/Transparent.gif","//upload.wikimedia.org/wikipedia/commons/c/ce/Transparent.gif","//upload.wikimedia.org/wikipedia/commons/c/ce/Transparent.gif","//upload.wikimedia.org/wikipedia/commons/c/ce/Transparent.gif","//upload.wikimedia.org/wikipedia/commons/c/ce/Transparent.gif","//upload.wikimedia.org/wikipedia/commons/c/ce/Transparent.gif","//upload.wikimedia.org/wikipedia/commons/c/ce/Transparent.gif","//upload.wikimedia.org/wikipedia/commons/c/ce/Transparent.gif","//upload.wikimedia.org/wikipedia/commons/c/ce/Transparent.gif","//upload.wikimedia.org/wikipedia/commons/c/ce/Transparent.gif","//upload.wikimedia.org/wikipedia/commons/c/ce/Transparent.gif","//upload.wikimedia.org/wikipedia/commons/c/ce/Transparent.gif","//upload.wikimedia.org/wikipedia/commons/c/ce/Transparent.gif","//upload.wikimedia.org/wikipedia/commons/c/ce/Transparent.gif","//upload.wikimedia.org/wikipedia/commons/c/ce/Transparent.gif","//upload.wikimedia.org/wikipedia/commons/c/ce/Transparent.gif","//upload.wikimedia.org/wikipedia/commons/c/ce/Transparent.gif","//upload.wikimedia.org/wikipedia/commons/c/ce/Transparent.gif","//upload.wikimedia.org/wikipedia/commons/c/ce/Transparent.gif","//upload.wikimedia.org/wikipedia/commons/c/ce/Transparent.gif","//upload.wikimedia.org/wikipedia/commons/c/ce/Transparent.gif","//upload.wikimedia.org/wikipedia/commons/c/ce/Transparent.gif","//upload.wikimedia.org/wikipedia/commons/c/ce/Transparent.gif","//upload.wikimedia.org/wikipedia/commons/c/ce/Transparent.gif","//upload.wikimedia.org/wikipedia/commons/c/ce/Transparent.gif","//upload.wikimedia.org/wikipedia/commons/c/ce/Transparent.gif","//upload.wikimedia.org/wikipedia/commons/c/ce/Transparent.gif","//upload.wikimedia.org/wikipedia/commons/c/ce/Transparent.gif","//upload.wikimedia.org/wikipedia/commons/c/ce/Transparent.gif","//upload.wikimedia.org/wikipedia/commons/c/ce/Transparent.gif","//upload.wikimedia.org/wikipedia/commons/c/ce/Transparent.gif","//upload.wikimedia.org/wikipedia/commons/c/ce/Transparent.gif","//upload.wikimedia.org/wikipedia/commons/c/ce/Transparent.gif","//upload.wikimedia.org/wikipedia/commons/c/ce/Transparent.gif","//upload.wikimedia.org/wikipedia/commons/c/ce/Transparent.gif","//upload.wikimedia.org/wikipedia/commons/c/ce/Transparent.gif","//upload.wikimedia.org/wikipedia/commons/c/ce/Transparent.gif","//upload.wikimedia.org/wikipedia/commons/thumb/4/46/Neon_discharge_tube.jpg/250px-Neon_discharge_tube.jpg","//upload.wikimedia.org/wikipedia/commons/thumb/9/99/Neon_spectra.jpg/250px-Neon_spectra.jpg","//upload.wikimedia.org/wikipedia/commons/thumb/3/3e/Electron_shell_010_Neon_-_no_label.svg/153px-Electron_shell_010_Neon_-_no_label.svg.png","//upload.wikimedia.org/wikipedia/commons/thumb/c/c9/Cubic-face-centered.svg/50px-Cubic-face-centered.svg.png","//upload.wikimedia.org/wikipedia/commons/thumb/8/88/NeTube.jpg/220px-NeTube.jpg","//bits.wikimedia.org/static-1.21wmf10/skins/common/images/magnify-clip.png","//upload.wikimedia.org/wikipedia/commons/thumb/e/e6/Discovery_of_neon_isotopes.JPG/170px-Discovery_of_neon_isotopes.JPG","//bits.wikimedia.org/static-1.21wmf10/skins/common/images/magnify-clip.png","//upload.wikimedia.org/wikipedia/commons/thumb/4/46/Neon_discharge_tube.jpg/220px-Neon_discharge_tube.jpg","//bits.wikimedia.org/static-1.21wmf10/skins/common/images/magnify-clip.png","//upload.wikimedia.org/wikipedia/commons/thumb/3/35/Neon_emission.png/220px-Neon_emission.png","//bits.wikimedia.org/static-1.21wmf10/skins/common/images/magnify-clip.png","//upload.wikimedia.org/wikipedia/commons/thumb/8/83/Mill_Mountain_Star_Neon_Lights.JPG/220px-Mill_Mountain_Star_Neon_Lights.JPG","//bits.wikimedia.org/static-1.21wmf10/skins/common/images/magnify-clip.png","//upload.wikimedia.org/wikipedia/commons/thumb/a/a8/Office-book.svg/30px-Office-book.svg.png","//upload.wikimedia.org/wikipedia/commons/thumb/a/a8/Office-book.svg/30px-Office-book.svg.png","//upload.wikimedia.org/wikipedia/commons/thumb/a/a8/Office-book.svg/30px-Office-book.svg.png","//upload.wikimedia.org/wikipedia/commons/thumb/a/a8/Office-book.svg/30px-Office-book.svg.png","//upload.wikimedia.org/wikipedia/commons/thumb/a/a8/Office-book.svg/30px-Office-book.svg.png","//upload.wikimedia.org/wikipedia/commons/thumb/5/59/Nuvola_apps_edu_science.svg/30px-Nuvola_apps_edu_science.svg.png","//upload.wikimedia.org/wikipedia/en/thumb/4/4a/Commons-logo.svg/22px-Commons-logo.svg.png","//upload.wikimedia.org/wikipedia/commons/thumb/f/f8/Wiktionary-logo-en.svg/28px-Wiktionary-logo-en.svg.png","//upload.wikimedia.org/wikipedia/commons/thumb/f/fa/Wikibooks-logo.svg/30px-Wikibooks-logo.svg.png","//upload.wikimedia.org/wikipedia/commons/thumb/9/91/Wikiversity-logo.svg/30px-Wikiversity-logo.svg.png","//upload.wikimedia.org/wikipedia/en/thumb/9/94/Symbol_support_vote.svg/15px-Symbol_support_vote.svg.png","//bits.wikimedia.org/static-1.21wmf10/skins/vector/images/search-ltr.png?303-4","//bits.wikimedia.org/images/wikimedia-button.png","//bits.wikimedia.org/static-1.21wmf10/skins/common/images/poweredby_mediawiki_88x31.png"],"tags":[["orange","colour"],["rock","geology"]],"members":["rock","orange"],"related":["Chemical_element","Atomic_number","Noble_gas","Periodic_table","Standard_conditions_for_temperature_and_pressure","Emission_spectrum","Inert","Nucleogenesis","Planetesimal","Red","Orange_(colour)","Volt","Neon_lamp","Geissler_tube","Neon_sign","Helium-neon_laser","Fractional_distillation","Liquid_air","William_Ramsay","Morris_W._Travers","Nitrogen","Oxygen","Argon","Krypton","Moore_tube","Nitrogen","Georges_Claude","Air_Liquide","Neon_lighting","Neon_sign","J._J._Thomson","Canal_rays","Light","Atom","Gas","Isotopes","Stable_isotope","Mass_spectrometer","Stable_isotope","Primordial_isotope","Nucleogenic","Natural_abundance","Primordial_isotope","Nucleosynthesis","Radiogenic","Cluster_decay","Earth","Nuclear_reaction","Isotope","Neutron_capture","Alpha_particle","Neutron","Alpha_particle","Uranium","Decay_chain","Granite","Rock_(geology)","Cosmogenic","Spallation","Magnesium","Sodium","Silicon","Aluminium","Magma","Meteorite","Xenon","Volcano","Gas","Solar_neon","Diamond","Helium","Discharge_tube","Helium","Hydrogen","Refrigerant","Neon_lighting","Neon_lamp","Volts","Light-emitting_diodes","Plasma_display","Neon_sign","Kilovolt","Helium","Oxygen","Alpha_process","Kelvins","Abundance_of_the_chemical_elements","Chemical_element","Galileo_spacecraft","Planetesimal","Earth's_atmosphere","Fractional_distillation","Neon_sign","Noble_gases","Fluorescent_bulb","Vacuum_tube","Lightning","Television","Helium-neon_laser","Cryogenic","Refrigerant","Triple_point","International_Temperature_Scale_of_1990","Inert","Ion","Argon","Hydrogen","Helium","Mass_spectrometry","Hydrate","Expansion_ratio","Neon_sign","Neon_lamp"]}