{"cursor":"3086","size":15,"audio":[],"currentlang":"en","article":"{{Chembox\n| ImageFile = pentadecanoic acid.svg ImageSize = 250px IUPACName = pentadecanoic\n| acid OtherNames = n-Pentadecanoic acid; Pentadecylic acid Section1 = {{Chembox\n| Identifiers CASNo = 1002-84-2 PubChem = 13849 ChemSpiderID = 13249 SMILES =\n| O=C(O)CCCCCCCCCCCCCC InChI = InChI=1S/C15H30O2/c1-2-3-4-5-6-7-8-9-10-11-12-13-14-15(16)17/h2-\n| 14H2,1H3,(H,16,17)\n  }}\n| Section2 = {{Chembox Properties C=15|H=30|O=2 Appearance = Density = 0.842\n| g/cm 3 MeltingPt = 51-53 °C [http://www.sigmaaldrich.com/catalog/product/fluka/91446?lang=en&regi-\n| on=US Pentadecanoic acid], Sigma-Aldrich BoilingPt = 257 °C (100\n| mmHg) Solubility =\n  }}\n| Section3 = {{Chembox Hazards MainHazards = FlashPt = Autoignition =\n  }} }}\n\n'Pentadecanoic acid' is a saturated fatty acid. Its molecular formula is\nCH 3(CH 2) 13 COOH. It is rare in nature, being\nfound at the level of 1.2% in the milk fat from cows. Rolf Jost \"Milk and\nDairy Products\" Ullmann's Encyclopedia of Industrial Chemistry, Wiley-VCH,\nWeinheim, 2002.  The butterfat in cows milk is its major dietary\nsource and it is used as a marker for butterfat consumption. [http://www.lipomics.com/fatty_acids/pentadecanoic-\nacid Pentadecanoic acid], Lipomics.com Pentadecanoic acid also occurs in\nhydrogenated mutton fat.\n\nPentadecanoic acid may increase mother-to-child transmission of HIV through\nbreastfeeding.\n","linknr":214,"url":"Pentadecanoic_acid","recorded":1374539774,"links":["/w/index.php?title=Pentadecanoic_acid&action=edit","/w/index.php?title=Pentadecanoic_acid&action=edit","//bits.wikimedia.org/favicon/wikipedia.ico","/w/opensearch_desc.php","//en.wikipedia.org/w/api.php?action=rsd","//creativecommons.org/licenses/by-sa/3.0/","/w/index.php?title=Special:RecentChanges&feed=atom","//bits.wikimedia.org/en.wikipedia.org/load.php?debug=false&lang=en&modules=ext.gadget.DRN-wizard%2CReferenceTooltips%2Ccharinsert%2Cteahouse%7Cext.rtlcite%2Cwikihiero%7Cext.uls.nojs%7Cmediawiki.legacy.commonPrint%2Cshared%7Cmw.PopUpMediaTransform%7Cskins.vector&only=styles&skin=vector&*","//bits.wikimedia.org/en.wikipedia.org/load.php?debug=false&lang=en&modules=site&only=styles&skin=vector&*","//bits.wikimedia.org/en.wikipedia.org/load.php?debug=false&lang=en&modules=startup&only=scripts&skin=vector&*","//bits.wikimedia.org/geoiplookup","//meta.wikimedia.org","#mw-navigation","#p-search","/wiki/File:Pentadecanoic_acid.svg","//upload.wikimedia.org/wikipedia/commons/thumb/1/17/Pentadecanoic_acid.svg/250px-Pentadecanoic_acid.svg.png","/wiki/International_Union_of_Pure_and_Applied_Chemistry_nomenclature","/wiki/CAS_registry_number","http://www.commonchemistry.org/ChemicalDetail.aspx?ref=1002-84-2","/wiki/PubChem","http://pubchem.ncbi.nlm.nih.gov/summary/summary.cgi?cid=13849","/wiki/ChemSpider","http://www.chemspider.com/13249","/wiki/Jmol","http://chemapps.stolaf.edu/jmol/jmol.php?model=O%3DC%28O%29CCCCCCCCCCCCCC","/wiki/Simplified_molecular-input_line-entry_system","/wiki/International_Chemical_Identifier","/wiki/Molecular_formula","/wiki/Molar_mass","/wiki/Density","/wiki/Melting_point","#cite_note-Sigma-Aldrich-1","/wiki/Boiling_point","#cite_note-Sigma-Aldrich-1","/wiki/Standard_state","/wiki/Wikipedia:Chemical_infobox#References","/wiki/Fatty_acid","#cite_note-2","/wiki/Butterfat","/wiki/Milk","#cite_note-3","#cite_note-4","#cite_note-5","#cite_note-6","/w/index.php?title=Pentadecanoic_acid&action=edit&section=1","#cite_ref-Sigma-Aldrich_1-0","#cite_ref-Sigma-Aldrich_1-1","http://www.sigmaaldrich.com/catalog/product/fluka/91446?lang=en&region=US","/wiki/Sigma-Aldrich","#cite_ref-2","/wiki/Digital_object_identifier","http://dx.doi.org/10.1002%2F14356007.a16_589.pub3","#cite_ref-3","/wiki/PubMed_Identifier","//www.ncbi.nlm.nih.gov/pubmed/9925119","#cite_ref-4","http://www.lipomics.com/fatty_acids/pentadecanoic-acid","#cite_ref-5","http://www.ncbi.nlm.nih.gov/pmc/articles/PMC1269934","/wiki/PubMed_Central","//www.ncbi.nlm.nih.gov/pmc/articles/PMC1269934","/wiki/PubMed_Identifier","//www.ncbi.nlm.nih.gov/pubmed/13229996","#cite_ref-6","/wiki/PubMed_Identifier","//www.ncbi.nlm.nih.gov/pubmed/17823433","/w/index.php?title=Pentadecanoic_acid&action=edit&section=2","http://msds.chem.ox.ac.uk/PE/pentadecanoic_acid.html","/wiki/Template:Fatty_acids","/wiki/Template_talk:Fatty_acids","//en.wikipedia.org/w/index.php?title=Template:Fatty_acids&action=edit","/wiki/Lipid","/wiki/Fatty_acid","/wiki/Saturated_fat","/wiki/Volatile_fatty_acids","/wiki/Acetic_acid","/wiki/Propionic_acid","/wiki/Butyric_acid","/wiki/Valeric_acid","/wiki/Hexanoic_acid","/wiki/Heptanoic_acid","/wiki/Caprylic_acid","/wiki/Nonanoic_acid","/wiki/Decanoic_acid","/wiki/Undecylic_acid","/wiki/Lauric_acid","/wiki/Tridecylic_acid","/wiki/Myristic_acid","/wiki/Palmitic_acid","/wiki/Heptadecanoic_acid","/wiki/Stearic_acid","/wiki/Nonadecylic_acid","/wiki/Arachidic_acid","/w/index.php?title=Heneicosylic_acid&action=edit&redlink=1","/wiki/Behenic_acid","/w/index.php?title=Tricosylic_acid&action=edit&redlink=1","/wiki/Lignoceric_acid","/w/index.php?title=Pentacosylic_acid&action=edit&redlink=1","/wiki/Cerotic_acid","/w/index.php?title=Heptacosylic_acid&action=edit&redlink=1","/wiki/Montanic_acid","/w/index.php?title=Nonacosylic_acid&action=edit&redlink=1","/wiki/Melissic_acid","/wiki/Hentriacontylic_acid","/wiki/Lacceroic_acid","/wiki/Psyllic_acid","/wiki/Geddic_acid","/wiki/Ceroplastic_acid","/wiki/Hexatriacontylic_acid","/wiki/Omega-3_fatty_acid","/wiki/Alpha-Linolenic_acid","/wiki/Stearidonic_acid","/wiki/Eicosapentaenoic_acid","/wiki/Docosahexaenoic_acid","/wiki/Omega-6_fatty_acid","/wiki/Linoleic_acid","/wiki/Gamma-Linolenic_acid","/wiki/Dihomo-gamma-linolenic_acid","/wiki/Arachidonic_acid","/wiki/Adrenic_acid","/wiki/Omega-7_fatty_acid","/wiki/Palmitoleic_acid","/wiki/Vaccenic_acid","/wiki/Paullinic_acid","/wiki/Omega-9_fatty_acid","/wiki/Oleic_acid","/wiki/Elaidic_acid","/wiki/Gondoic_acid","/wiki/Erucic_acid","/wiki/Nervonic_acid","/wiki/Mead_acid","/wiki/Biochemistry","/wiki/Template:Metabolism","/wiki/Template:Carbohydrates","/wiki/Template:Alcohols","/wiki/Template:Glycoproteins","/wiki/Template:Glycosides","/wiki/Template:Lipids","/wiki/Template:Eicosanoids","/wiki/Template:Fatty_acids","/wiki/Template:Fatty-acid_metabolism_intermediates","/wiki/Template:Phospholipids","/wiki/Template:Sphingolipids","/wiki/Template:Cholesterol_and_steroid_intermediates","/wiki/Template:Nucleic_acids","/wiki/Template:Nucleobases,_nucleosides,_and_nucleotides","/wiki/Template:Nucleotide_metabolism_intermediates","/wiki/Template:Protein_topics","/wiki/Template:AminoAcids","/wiki/Template:Amino_acid_metabolism_intermediates","/wiki/Template:Tetrapyrroles","/wiki/Template:Heme_metabolism_intermediates","//en.wikipedia.org/w/index.php?title=Special:CentralAutoLogin/start&type=1x1&from=enwiki","http://en.wikipedia.org/w/index.php?title=Pentadecanoic_acid&oldid=564872647","/wiki/Help:Categories","/wiki/Category:Fatty_acids","/wiki/Category:Articles_containing_unverified_chemical_infoboxes","/w/index.php?title=Special:UserLogin&returnto=Pentadecanoic+acid&type=signup","/w/index.php?title=Special:UserLogin&returnto=Pentadecanoic+acid","/wiki/Pentadecanoic_acid","/wiki/Talk:Pentadecanoic_acid","#","/wiki/Pentadecanoic_acid","/w/index.php?title=Pentadecanoic_acid&action=edit","/w/index.php?title=Pentadecanoic_acid&action=history","#","/w/index.php","//bits.wikimedia.org/static-1.22wmf10/skins/vector/images/search-ltr.png?303-4","/wiki/Main_Page","/wiki/Main_Page","/wiki/Portal:Contents","/wiki/Portal:Featured_content","/wiki/Portal:Current_events","/wiki/Special:Random","//donate.wikimedia.org/wiki/Special:FundraiserRedirector?utm_source=donate&utm_medium=sidebar&utm_campaign=C13_en.wikipedia.org&uselang=en","/wiki/Help:Contents","/wiki/Wikipedia:About","/wiki/Wikipedia:Community_portal","/wiki/Special:RecentChanges","//en.wikipedia.org/wiki/Wikipedia:Contact_us","/wiki/Special:WhatLinksHere/Pentadecanoic_acid","/wiki/Special:RecentChangesLinked/Pentadecanoic_acid","/wiki/Wikipedia:File_Upload_Wizard","/wiki/Special:SpecialPages","/w/index.php?title=Pentadecanoic_acid&oldid=564872647","/w/index.php?title=Pentadecanoic_acid&action=info","//www.wikidata.org/wiki/Q418951","/w/index.php?title=Special:Cite&page=Pentadecanoic_acid&id=564872647","/w/index.php?title=Special:Book&bookcmd=book_creator&referer=Pentadecanoic+acid","/w/index.php?title=Special:Book&bookcmd=render_article&arttitle=Pentadecanoic+acid&oldid=564872647&writer=rl","/w/index.php?title=Pentadecanoic_acid&printable=yes","//de.wikipedia.org/wiki/Pentadecans%C3%A4ure","//fa.wikipedia.org/wiki/%D8%A7%D8%B3%DB%8C%D8%AF_%D9%BE%D9%86%D8%AA%D8%A7%D8%AF%DA%A9%D8%A7%D9%86%D9%88%D8%A6%DB%8C%DA%A9","//fr.wikipedia.org/wiki/Acide_pentad%C3%A9cano%C3%AFque","//ja.wikipedia.org/wiki/%E3%83%9A%E3%83%B3%E3%82%BF%E3%83%87%E3%82%AB%E3%83%B3%E9%85%B8","//ru.wikipedia.org/wiki/%D0%9F%D0%B5%D0%BD%D1%82%D0%B0%D0%B4%D0%B5%D0%BA%D0%B0%D0%BD%D0%BE%D0%B2%D0%B0%D1%8F_%D0%BA%D0%B8%D1%81%D0%BB%D0%BE%D1%82%D0%B0","//sr.wikipedia.org/wiki/Pentadekanska_kiselina","//zh.wikipedia.org/wiki/%E5%8D%81%E4%BA%94%E9%85%B8","#","//www.wikidata.org/wiki/Q418951#sitelinks-wikipedia","//en.wikipedia.org/wiki/Wikipedia:Text_of_Creative_Commons_Attribution-ShareAlike_3.0_Unported_License","//creativecommons.org/licenses/by-sa/3.0/","//wikimediafoundation.org/wiki/Terms_of_Use","//wikimediafoundation.org/wiki/Privacy_policy","//www.wikimediafoundation.org/","//wikimediafoundation.org/wiki/Privacy_policy","/wiki/Wikipedia:About","/wiki/Wikipedia:General_disclaimer","//en.wikipedia.org/wiki/Wikipedia:Contact_us","//en.m.wikipedia.org/wiki/Pentadecanoic_acid","//wikimediafoundation.org/","//bits.wikimedia.org/images/wikimedia-button.png","//www.mediawiki.org/","//bits.wikimedia.org/static-1.22wmf10/skins/common/images/poweredby_mediawiki_88x31.png","//bits.wikimedia.org/en.wikipedia.org/load.php?debug=false&lang=en&modules=site&only=scripts&skin=vector&*"],"instances":[],"pdf":[],"categories":["Fatty acids"],"headings":["References","External links"],"image":["//upload.wikimedia.org/wikipedia/commons/thumb/1/17/Pentadecanoic_acid.svg/250px-Pentadecanoic_acid.svg.png","//en.wikipedia.org/w/index.php?title=Special:CentralAutoLogin/start&type=1x1&from=enwiki","//bits.wikimedia.org/static-1.22wmf10/skins/vector/images/search-ltr.png?303-4","//bits.wikimedia.org/images/wikimedia-button.png","//bits.wikimedia.org/static-1.22wmf10/skins/common/images/poweredby_mediawiki_88x31.png"],"tags":[],"members":[],"related":["Sigma-Aldrich","Fatty_acid","Butterfat","Milk"]}