{"cursor":"12858","size":15,"audio":[],"currentlang":"en","article":"{{Chembox\n| verifiedrevid = 464209740 ImageFile = Polyethylenimin.svg ImageSize = 150px\n| ImageAlt = IUPACName = Poly(iminoethylene) PIN = OtherNames = Polyaziridine,\n| Poly[imino(1,2-ethanediyl)] Section1 = {{Chembox Identifiers CASNo_Ref = CASNo\n| = 9002-98-6 PubChem = ChemSpiderID_Ref = ChemSpiderID = NA SMILES = }}\n| Section2 = {{Chembox Properties Formula =\n| (C 2H 5N) n, linear form MolarMass = variable\n| Appearance = Density = MeltingPt = BoilingPt = Solubility = }} Section3 =\n| {{Chembox Hazards MainHazards = FlashPt = Autoignition = }}\n}}\n\n'Polyethyleneimine' (PEI) or polyaziridine is a polymer with repeating unit\ncomposed of the amine group and two carbon aliphatic CH{{sub|2}}CH{{sub|2}}\nspacer. Linear polyethyleneimines contain all secondary amines, in contrast to\nbranched PEIs which contain primary, secondary and tertiary amino groups.\nTotally branched, dendrimeric forms were also reported. {{cite journal\n|last1= Yemuland |first1= Omprakash |last2= Imae |first2= Toyoko |year= 2008\n|title= Synthesis and characterization of poly(ethyleneimine) dendrimers\n|journal= Colloid & Polymer Science |volume= 286 |issue= 6â7 |pages=747â752\n|publisher= |doi= 10.1007/s00396-007-1830-6 |url= http://link.springer.com/article/10.1007%2Fs00396-007-1830-\n6?LI}} PEI is produced on industrial scale and finds many applications\nusually derived from its polycationic character. {{cite book |last1=\nDavidson |first1= Robert L. |last2= Sittig |first2= Marshall |title= Water-\nsoluble resins |year=1968 |publisher=Reinhold Book Corp. |location= |isbn=\n0278916139 |page= }}\n\n{{multiple image\n| align = left direction = vertical width = 230 image1 = Linear PEI.png caption1\n| = Linear PEI fragment image2 = Branched PEI.png caption2 = Typical branched\n| PEI fragment image3 = G4 dendrimer PEI.png caption3 = PEI dendrimer generation\n| 4 background color = #FFFFFF\n}}\n","linknr":220,"url":"Polyethylenimine","recorded":1364231794,"links":["/w/index.php?title=Polyethylenimine&action=edit","/w/index.php?title=Polyethylenimine&action=edit","//en.wikipedia.org/apple-touch-icon.png","//bits.wikimedia.org/favicon/wikipedia.ico","/w/opensearch_desc.php","//en.wikipedia.org/w/api.php?action=rsd","//creativecommons.org/licenses/by-sa/3.0/","/w/index.php?title=Special:RecentChanges&feed=atom","//bits.wikimedia.org/en.wikipedia.org/load.php?debug=false&lang=en&modules=ext.gadget.DRN-wizard%2CReferenceTooltips%2Ccharinsert%2Cteahouse%7Cext.wikihiero%7Cmediawiki.legacy.commonPrint%2Cshared%7Cmw.PopUpMediaTransform%7Cskins.vector&only=styles&skin=vector&*","//bits.wikimedia.org/en.wikipedia.org/load.php?debug=false&lang=en&modules=site&only=styles&skin=vector&*","//bits.wikimedia.org/en.wikipedia.org/load.php?debug=false&lang=en&modules=startup&only=scripts&skin=vector&*","//bits.wikimedia.org/geoiplookup","//meta.wikimedia.org","#mw-head","#p-search","/wiki/File:Polyethylenimin.svg","//upload.wikimedia.org/wikipedia/commons/thumb/0/04/Polyethylenimin.svg/150px-Polyethylenimin.svg.png","/wiki/International_Union_of_Pure_and_Applied_Chemistry_nomenclature","/wiki/CAS_registry_number","http://www.commonchemistry.org/ChemicalDetail.aspx?ref=9002-98-6","//upload.wikimedia.org/wikipedia/en/thumb/f/fb/Yes_check.svg/7px-Yes_check.svg.png","/wiki/Chemical_formula","/wiki/Molar_mass","//upload.wikimedia.org/wikipedia/en/thumb/f/fb/Yes_check.svg/14px-Yes_check.svg.png","//en.wikipedia.org/w/index.php?title=Special:ComparePages&rev1=464209740&page2=Polyethylenimine","/wiki/Wikipedia:WikiProject_Chemicals/Chembox_validation","//upload.wikimedia.org/wikipedia/en/thumb/f/fb/Yes_check.svg/10px-Yes_check.svg.png","//upload.wikimedia.org/wikipedia/commons/thumb/a/a2/X_mark.svg/10px-X_mark.svg.png","/wiki/Standard_state","/wiki/Wikipedia:Chemical_infobox#References","/wiki/Amine","/wiki/Dendrimer","#cite_note-1","#cite_note-2","/wiki/File:Linear_PEI.png","//upload.wikimedia.org/wikipedia/commons/thumb/a/aa/Linear_PEI.png/230px-Linear_PEI.png","/wiki/File:Branched_PEI.png","//upload.wikimedia.org/wikipedia/commons/thumb/7/75/Branched_PEI.png/230px-Branched_PEI.png","/wiki/File:G4_dendrimer_PEI.png","//upload.wikimedia.org/wikipedia/commons/thumb/8/89/G4_dendrimer_PEI.png/230px-G4_dendrimer_PEI.png","#Properties","#Synthesis","#Applications","#Attachment_promoter","#Transfection_reagent","#CO2_capture","#References","/w/index.php?title=Polyethylenimine&action=edit&section=1","/wiki/Room_temperature","/wiki/Methanol","/wiki/Ethanol","/wiki/Chloroform","/wiki/Benzene","/wiki/Diethyl_ether","/wiki/Acetone","/wiki/Melting_point","/w/index.php?title=Polyethylenimine&action=edit&section=2","/wiki/Ring_opening_polymerization","/wiki/Aziridine","#cite_note-3","#cite_note-4","#cite_note-5","#cite_note-6","#cite_note-7","#cite_note-8","/w/index.php?title=Polyethylenimine&action=edit&section=3","#cite_note-9","/wiki/Papermaking","#cite_note-10","#cite_note-11","/w/index.php?title=Polyethylenimine&action=edit&section=4","#cite_note-Vancha_2004-12","/w/index.php?title=Polyethylenimine&action=edit&section=5","#cite_note-13","/wiki/Endocytosis","#cite_note-Rudolf_2000-14","#cite_note-Aknic_2004-15","#cite_note-16","#cite_note-17","/w/index.php?title=Polyethylenimine&action=edit&section=6","#cite_note-18","#cite_note-19","#cite_note-20","#cite_note-21","#cite_note-22","#cite_note-23","#cite_note-24","#cite_note-25","#cite_note-26","#cite_note-27","#cite_note-28","#cite_note-29","/w/index.php?title=Polyethylenimine&action=edit&section=7","#cite_ref-1","http://link.springer.com/article/10.1007%2Fs00396-007-1830-6?LI","/wiki/Digital_object_identifier","http://dx.doi.org/10.1007%2Fs00396-007-1830-6","#cite_ref-2","/wiki/International_Standard_Book_Number","/wiki/Special:BookSources/0278916139","#cite_ref-3","#cite_ref-4","http://pubs.acs.org/doi/abs/10.1021/ma00240a003","/wiki/Digital_object_identifier","http://dx.doi.org/10.1021%2Fma00240a003","#cite_ref-5","http://link.springer.com/article/10.1007%2FBF00255018?LI=true","/wiki/Digital_object_identifier","http://dx.doi.org/10.1007%2Fbf00255018","#cite_ref-6","#cite_ref-7","http://www.polyplus-transfection.com/transfection-reagents/high-throughput-screening-jetpei/","#cite_ref-8","http://www.wipo.int/pctdb/en/wo.jsp?WO=2009016507&IA=IB2008002339&DISPLAY=DOCS","#cite_ref-9","http://www.sigmaaldrich.com/catalog/product/aldrich/181978?lang=en","/wiki/Sigma-Aldrich","http://www.sigmaaldrich.com/catalog/product/aldrich/181978?lang=en","#cite_ref-10","http://subscribers.npprj.se/html/main.asp?i=167&h=1&b=1&m=172#","/wiki/Digital_object_identifier","http://dx.doi.org/10.3183%2FNPPRJ-2000-15-05-p586-597","#cite_ref-11","/wiki/International_Standard_Book_Number","/wiki/Special:BookSources/978-0195107890","#cite_ref-Vancha_2004_12-0","http://www.ncbi.nlm.nih.gov/pmc/articles/PMC526208","/wiki/Digital_object_identifier","http://dx.doi.org/10.1186%2F1472-6750-4-23","/wiki/PubMed_Central","//www.ncbi.nlm.nih.gov/pmc/articles/PMC526208","/wiki/PubMed_Identifier","//www.ncbi.nlm.nih.gov/pubmed/15485583","#cite_ref-13","/wiki/Digital_object_identifier","http://dx.doi.org/10.1073%2Fpnas.92.16.7297","#cite_ref-Rudolf_2000_14-0","/wiki/Digital_object_identifier","http://dx.doi.org/10.1002%2F1521-2254%28200007%2F08%292%3A4%3C269%3A%3AAID-JGM112%3E3.0.CO%3B2-F","/wiki/PubMed_Identifier","//www.ncbi.nlm.nih.gov/pubmed/10953918","#cite_ref-Aknic_2004_15-0","/wiki/Digital_object_identifier","http://dx.doi.org/10.1002%2Fjgm.696","/wiki/PubMed_Identifier","//www.ncbi.nlm.nih.gov/pubmed/15543529","#cite_ref-16","#cite_ref-17","#cite_ref-18","#cite_ref-19","#cite_ref-20","#cite_ref-21","#cite_ref-22","#cite_ref-23","#cite_ref-24","#cite_ref-25","#cite_ref-26","#cite_ref-27","#cite_ref-28","#cite_ref-29","/wiki/Digital_object_identifier","http://dx.doi.org/10.1039%2FC2TA01343F","http://en.wikipedia.org/w/index.php?title=Polyethylenimine&oldid=542633805","/wiki/Help:Categories","/wiki/Category:Polymers","/wiki/Category:Chemical_compounds_which_do_not_have_a_ChemSpiderID","/w/index.php?title=Special:UserLogin&returnto=Polyethylenimine&type=signup","/w/index.php?title=Special:UserLogin&returnto=Polyethylenimine","/wiki/Polyethylenimine","/wiki/Talk:Polyethylenimine","#","/wiki/Polyethylenimine","/w/index.php?title=Polyethylenimine&action=edit","/w/index.php?title=Polyethylenimine&action=history","#","/w/index.php","//bits.wikimedia.org/static-1.21wmf11/skins/vector/images/search-ltr.png?303-4","/wiki/Main_Page","/wiki/Main_Page","/wiki/Portal:Contents","/wiki/Portal:Featured_content","/wiki/Portal:Current_events","/wiki/Special:Random","//donate.wikimedia.org/wiki/Special:FundraiserRedirector?utm_source=donate&utm_medium=sidebar&utm_campaign=C13_en.wikipedia.org&uselang=en","/wiki/Help:Contents","/wiki/Wikipedia:About","/wiki/Wikipedia:Community_portal","/wiki/Special:RecentChanges","/wiki/Wikipedia:Contact_us","/wiki/Special:WhatLinksHere/Polyethylenimine","/wiki/Special:RecentChangesLinked/Polyethylenimine","/wiki/Wikipedia:File_Upload_Wizard","/wiki/Special:SpecialPages","/w/index.php?title=Polyethylenimine&oldid=542633805","/w/index.php?title=Polyethylenimine&action=info","/w/index.php?title=Special:Cite&page=Polyethylenimine&id=542633805","/w/index.php?title=Special:Book&bookcmd=book_creator&referer=Polyethylenimine","/w/index.php?title=Special:Book&bookcmd=render_article&arttitle=Polyethylenimine&oldid=542633805&writer=rl","/w/index.php?title=Polyethylenimine&printable=yes","//de.wikipedia.org/wiki/Polyethylenimin","//es.wikipedia.org/wiki/Polietilenimina","//fa.wikipedia.org/wiki/%D9%BE%D9%84%DB%8C%E2%80%8C%D8%A7%D8%AA%DB%8C%D9%84%D9%86%E2%80%8C%D8%A7%DB%8C%D9%85%DB%8C%D9%86","//nl.wikipedia.org/wiki/Polyethyleenimine","//zh.wikipedia.org/wiki/%E8%81%9A%E4%B9%99%E7%83%AF%E4%BA%9A%E8%83%BA","//www.wikidata.org/wiki/Special:ItemByTitle/enwiki/Polyethylenimine","//en.wikipedia.org/wiki/Wikipedia:Text_of_Creative_Commons_Attribution-ShareAlike_3.0_Unported_License","//creativecommons.org/licenses/by-sa/3.0/","//wikimediafoundation.org/wiki/Terms_of_Use","//www.wikimediafoundation.org/","//en.wikipedia.org/wiki/Wikipedia:Contact_us","//wikimediafoundation.org/wiki/Privacy_policy","/wiki/Wikipedia:About","/wiki/Wikipedia:General_disclaimer","http://en.m.wikipedia.org/wiki/Polyethylenimine","//wikimediafoundation.org/","//bits.wikimedia.org/images/wikimedia-button.png","//www.mediawiki.org/","//bits.wikimedia.org/static-1.21wmf11/skins/common/images/poweredby_mediawiki_88x31.png","//bits.wikimedia.org/en.wikipedia.org/load.php?debug=false&lang=en&modules=skins.vector&only=scripts&skin=vector&*","/w/index.php?title=MediaWiki:Gadget-ReferenceTooltips.js&action=raw&ctype=text/javascript&508635914","//bits.wikimedia.org/en.wikipedia.org/load.php?debug=false&lang=en&modules=site&only=scripts&skin=vector&*"],"instances":[],"pdf":[],"categories":["Polymers"],"headings":["Properties","Synthesis","Applications","References"],"image":["//upload.wikimedia.org/wikipedia/commons/thumb/0/04/Polyethylenimin.svg/150px-Polyethylenimin.svg.png","//upload.wikimedia.org/wikipedia/en/thumb/f/fb/Yes_check.svg/7px-Yes_check.svg.png","//upload.wikimedia.org/wikipedia/en/thumb/f/fb/Yes_check.svg/14px-Yes_check.svg.png","//upload.wikimedia.org/wikipedia/en/thumb/f/fb/Yes_check.svg/10px-Yes_check.svg.png","//upload.wikimedia.org/wikipedia/commons/thumb/a/a2/X_mark.svg/10px-X_mark.svg.png","//upload.wikimedia.org/wikipedia/commons/thumb/a/aa/Linear_PEI.png/230px-Linear_PEI.png","//upload.wikimedia.org/wikipedia/commons/thumb/7/75/Branched_PEI.png/230px-Branched_PEI.png","//upload.wikimedia.org/wikipedia/commons/thumb/8/89/G4_dendrimer_PEI.png/230px-G4_dendrimer_PEI.png","//bits.wikimedia.org/static-1.21wmf11/skins/vector/images/search-ltr.png?303-4","//bits.wikimedia.org/images/wikimedia-button.png","//bits.wikimedia.org/static-1.21wmf11/skins/common/images/poweredby_mediawiki_88x31.png"],"tags":[],"members":[],"related":["Amine","Dendrimer","Room_temperature","Methanol","Ethanol","Chloroform","Benzene","Diethyl_ether","Acetone","Melting_point","Ring_opening_polymerization","Aziridine","Sigma-Aldrich","Papermaking","Endocytosis"]}