{"cursor":"12195","size":15,"audio":[],"currentlang":"en","article":"\n\n{{chembox\n| Verifiedfields = changed Watchedfields = changed verifiedrevid = 464404882\n| Name = α-Solanine ImageFile = Solanine chemical structure.png ImageSize =\n| 250px ImageFile2 = Solanine_3d_structure.png ImageSize2 = 200px IUPACName =\n| (2S,3R,4S,5S,6R)-2-(((2R,3S,4S,5R,6R)-3-hydroxy-2-(hydroxymethyl)-5-\n| (((2R,3R,4R,5R,6S)-3,4,5-trihydroxy-6-methyltetrahydro-2H-pyran-2-yl)oxy)-6-\n| (((4S,6aR,6bS,8aS,8bR,9S,9aR,14aS,15aS,15bS)-6a,8a,9-trimethyl-\n| 3,4,5,6,6a,6b,7,8,8a,8b,9,9a,10,11,12,13,14a,15,15a,15b-icosahydro-1H-\n| naphtho[2',1':4,5]indeno[1,2-b]indolizin-4-yl)oxy)tetrahydro-2H-pyran-4-\n| yl)oxy)-6-(hydroxymethyl)tetrahydro-2H-pyran-3,4,5-triol IUPACName_hidden =\n| yes OtherNames = Section1 = {{Chembox Identifiers ChemSpiderID_Ref =\n| ChemSpiderID = 5020632 InChI = 1/C45H73NO15/c1-19-6-9-27-20(2)31-28(46(27)16-19)15-26-24-8-7-22-14-23(10-12-\n| 44(22,4)25(24)11-13-45(26,31)5)57-43-40(61-41-37(54)35(52)32(49)21(3)56-\n| 41)39(34(51)30(18-48)59-43)60-42-38(55)36(53)33(50)29(17-47)58-42/h7,19-21,23-\n| 43,47-55H,6,8-18H2,1-5H3/t19-,20+,21-,23?,24+,25-,26-,27+,28-,29+,30+,31-,32-\n| ,33+,34-,35+,36-,37+,38+,39-,40+,41+,42-,43+,44-,45-/m0/s1 InChIKey = ZGVSETXHNHBTRK-\n| WWELWOLRBD StdInChI_Ref = StdInChI = 1S/C45H73NO15/c1-19-6-9-27-20(2)31-28(46(27)16-19)15-26-24-8-7-22-14-23(10-\n| 12-44(22,4)25(24)11-13-45(26,31)5)57-43-40(61-41-37(54)35(52)32(49)21(3)56-\n| 41)39(34(51)30(18-48)59-43)60-42-38(55)36(53)33(50)29(17-47)58-42/h7,19-21,23-\n| 43,47-55H,6,8-18H2,1-5H3/t19-,20+,21-,23?,24+,25-,26-,27+,28-,29+,30+,31-,32-\n| ,33+,34-,35+,36-,37+,38+,39-,40+,41+,42-,43+,44-,45-/m0/s1 StdInChIKey_Ref =\n| StdInChIKey = ZGVSETXHNHBTRK-WWELWOLRSA-N CASNo_Ref = CASNo = 20562-02-1\n| PubChem = 6537493 UNII_Ref = UNII = 3FYV8328OK SMILES = }} Section2 =\n| {{Chembox Properties Formula = C 45 H73 NO 15\n| MolarMass = 868.06 Appearance = white crystalline solid Density = MeltingPt =\n| 271–273 °C BoilingPt = Solubility = }} Section3 = {{Chembox Hazards EUClass =\n| ExternalMSDS = FlashPt = Autoignition = }}\n}}\n\n'Solanine' is a glycoalkaloid poison found in species of the nightshade family\n(Solanaceae), such as the potato (Solanum tuberosum) and the tomato (Solanum\nlycopersicum). It can occur naturally in any part of the plant, including the\nleaves, fruit, and tubers. Solanine has fungicidal and pesticidal properties,\nand it is one of the plant's natural defenses. Solanine was first isolated in\n1820 from the berries of the European black nightshade ([[Solanum nigrum]]),\nafter which it was named. Desfosses, M. (1820): Extrait d'une lettre à M.\nRobiquet. In: J. de Pharmacie. Bd. 6, S. 374–376.\n","linknr":303,"url":"Solanine","recorded":1374861898,"links":["/w/index.php?title=Solanine&action=edit","/w/index.php?title=Solanine&action=edit","//bits.wikimedia.org/favicon/wikipedia.ico","/w/opensearch_desc.php","//en.wikipedia.org/w/api.php?action=rsd","//creativecommons.org/licenses/by-sa/3.0/","/w/index.php?title=Special:RecentChanges&feed=atom","//bits.wikimedia.org/en.wikipedia.org/load.php?debug=false&lang=en&modules=ext.gadget.DRN-wizard%2CReferenceTooltips%2Ccharinsert%2Cteahouse%7Cext.rtlcite%2Cwikihiero%7Cext.uls.nojs%7Cmediawiki.legacy.commonPrint%2Cshared%7Cmw.PopUpMediaTransform%7Cskins.vector&only=styles&skin=vector&*","//bits.wikimedia.org/en.wikipedia.org/load.php?debug=false&lang=en&modules=site&only=styles&skin=vector&*","//bits.wikimedia.org/en.wikipedia.org/load.php?debug=false&lang=en&modules=startup&only=scripts&skin=vector&*","//bits.wikimedia.org/geoiplookup","//meta.wikimedia.org","#mw-navigation","#p-search","/wiki/Solanin","//upload.wikimedia.org/wikipedia/en/thumb/9/99/Question_book-new.svg/50px-Question_book-new.svg.png","//en.wikipedia.org/w/index.php?title=Solanine&action=edit","/wiki/Help:Introduction_to_referencing/1","/wiki/Template:Citation_needed","/wiki/Wikipedia:Verifiability#Burden_of_evidence","/wiki/File:Solanine_chemical_structure.png","//upload.wikimedia.org/wikipedia/commons/thumb/5/58/Solanine_chemical_structure.png/250px-Solanine_chemical_structure.png","/wiki/File:Solanine_3d_structure.png","//upload.wikimedia.org/wikipedia/commons/thumb/2/2c/Solanine_3d_structure.png/200px-Solanine_3d_structure.png","/wiki/International_Union_of_Pure_and_Applied_Chemistry_nomenclature","/wiki/CAS_registry_number","http://www.commonchemistry.org/ChemicalDetail.aspx?ref=20562-02-1","//upload.wikimedia.org/wikipedia/commons/thumb/a/a2/X_mark.svg/7px-X_mark.svg.png","/wiki/PubChem","http://pubchem.ncbi.nlm.nih.gov/summary/summary.cgi?cid=6537493","/wiki/ChemSpider","http://www.chemspider.com/5020632","//upload.wikimedia.org/wikipedia/en/thumb/f/fb/Yes_check.svg/7px-Yes_check.svg.png","/wiki/Unique_Ingredient_Identifier","http://fdasis.nlm.nih.gov/srs/srsdirect.jsp?regno=3FYV8328OK","//upload.wikimedia.org/wikipedia/en/thumb/f/fb/Yes_check.svg/7px-Yes_check.svg.png","/wiki/International_Chemical_Identifier","//upload.wikimedia.org/wikipedia/en/thumb/f/fb/Yes_check.svg/7px-Yes_check.svg.png","//upload.wikimedia.org/wikipedia/en/thumb/f/fb/Yes_check.svg/7px-Yes_check.svg.png","/wiki/Chemical_formula","/wiki/Molar_mass","/wiki/Melting_point","//upload.wikimedia.org/wikipedia/commons/thumb/a/a2/X_mark.svg/14px-X_mark.svg.png","//en.wikipedia.org/w/index.php?title=Special:ComparePages&rev1=464404882&page2=Solanine","/wiki/Wikipedia:WikiProject_Chemicals/Chembox_validation","//upload.wikimedia.org/wikipedia/en/thumb/f/fb/Yes_check.svg/10px-Yes_check.svg.png","//upload.wikimedia.org/wikipedia/commons/thumb/a/a2/X_mark.svg/10px-X_mark.svg.png","/wiki/Standard_state","/wiki/Wikipedia:Chemical_infobox#References","/wiki/Glycoalkaloid","/wiki/Poison","/wiki/Solanum","/wiki/Solanaceae","/wiki/Potato","/wiki/Tomato","/wiki/Leaf","/wiki/Fruit","/wiki/Tuber","/wiki/Fungicide","/wiki/Pesticide","/wiki/Plant_defense_against_herbivory","/wiki/Berry","/wiki/Solanum_nigrum","#cite_note-1","#Solanine_poisoning","#Symptoms","#Mechanism_of_action","#Correlation_with_birth_defects","#Solanine_in_potatoes","#Solanine_in_tomatoes","#Other_uses_of_solanine","#See_also","#References","#External_links","/w/index.php?title=Solanine&action=edit&section=1","/w/index.php?title=Solanine&action=edit&section=2","/wiki/Vomiting","/wiki/Cardiac_dysrhythmia","/wiki/Nightmare","/wiki/Hallucination","/wiki/Paralysis","/wiki/Fever","/wiki/Jaundice","/wiki/Pupillary_dilation","/wiki/Hypothermia","#cite_note-2","/wiki/Wikipedia:Citation_needed","/w/index.php?title=Solanine&action=edit&section=3","/wiki/Cholinesterase","/wiki/Teratology","#cite_note-3","/wiki/Mitochondrion","/wiki/Potassium_channel","/wiki/Membrane_potential","/wiki/Apoptosis","#cite_note-pmid16733852-4","/w/index.php?title=Solanine&action=edit&section=4","/wiki/Phytophthora_infestans","/wiki/Glycoalkaloid","/wiki/Congenital_disorder","/wiki/Spina_bifida","/wiki/Wikipedia:Citation_needed","/wiki/Birth_defect","#cite_note-v30je19-5","/w/index.php?title=Solanine&action=edit&section=5","/wiki/File:Groene_aardappels_%27Dor%C3%A9%27_(Solanum_tuberosum_%27Dor%C3%A9%27).jpg","//upload.wikimedia.org/wikipedia/commons/thumb/9/98/Groene_aardappels_%27Dor%C3%A9%27_%28Solanum_tuberosum_%27Dor%C3%A9%27%29.jpg/220px-Groene_aardappels_%27Dor%C3%A9%27_%28Solanum_tuberosum_%27Dor%C3%A9%27%29.jpg","/wiki/File:Groene_aardappels_%27Dor%C3%A9%27_(Solanum_tuberosum_%27Dor%C3%A9%27).jpg","//bits.wikimedia.org/static-1.22wmf9/skins/common/images/magnify-clip.png","/wiki/Solanum","/wiki/Potato","/wiki/Tomato","/wiki/Eggplant","/wiki/Solanum_dulcamara","/wiki/Chaconine","/wiki/Plant_defense_against_herbivory","/wiki/Insect","/wiki/Disease","/wiki/Herbivore","/wiki/Leaf","/wiki/Plant_stem","/wiki/Shoot","/wiki/Tuber","/wiki/Chlorophyll","/wiki/Chaconine","/wiki/Phytophthora_infestans","#cite_note-6","/wiki/Taste#Bitterness","/wiki/Vomiting","/wiki/Diarrhea","/wiki/Gastroenteritis","#cite_note-7","/wiki/Solanum_dulcamara","#cite_note-8","/wiki/National_Institutes_of_Health","/wiki/Wikipedia:Citation_needed","/wiki/Deep_frying","/wiki/Microwave_oven","/wiki/Freeze_drying","/wiki/Drying_(food)","#cite_note-9","#cite_note-10","/w/index.php?title=Solanine&action=edit&section=6","/wiki/Tomato","/wiki/Tomatine","/wiki/Harold_McGee","#cite_note-11","/w/index.php?title=Solanine&action=edit&section=7","/wiki/Fungicide","/wiki/Pesticide","/wiki/Salt_(chemistry)","/wiki/Wikipedia:Citation_needed","/wiki/Sedative","/wiki/Anticonvulsant","/wiki/Asthma","/wiki/Cough","/wiki/Common_cold","/wiki/Wikipedia:Citation_needed","/w/index.php?title=Solanine&action=edit&section=8","/wiki/Solanidine","/w/index.php?title=Solanine&action=edit&section=9","#cite_ref-1","#cite_ref-2","http://ntp-server.niehs.nih.gov/index.cfm?objectid=6F5E930D-F1F6-975E-7037ACA48ABB25F4","/wiki/Wikipedia:Link_rot","#cite_ref-3","/wiki/Advances_in_Experimental_Medicine_and_Biology","/wiki/PubMed_Identifier","//www.ncbi.nlm.nih.gov/pubmed/10335373","#cite_ref-pmid16733852_4-0","http://www.wjgnet.com/1007-9327/12/3359.asp","/wiki/World_Journal_of_Gastroenterology","/wiki/PubMed_Identifier","//www.ncbi.nlm.nih.gov/pubmed/16733852","#cite_ref-v30je19_5-0","http://www.inchem.org/documents/jecfa/jecmono/v30je19.htm","#cite_ref-6","http://www.bmj.com/content/2/6203/1458.2","#cite_ref-7","http://www.ncbi.nlm.nih.gov/pmc/articles/PMC1597169","/wiki/Digital_object_identifier","http://dx.doi.org/10.1136%2Fbmj.2.6203.1458-a","/wiki/PubMed_Central","//www.ncbi.nlm.nih.gov/pmc/articles/PMC1597169","/wiki/PubMed_Identifier","//www.ncbi.nlm.nih.gov/pubmed/526812","#cite_ref-8","http://www.ncbi.nlm.nih.gov/pmc/articles/PMC2091497","/wiki/Digital_object_identifier","http://dx.doi.org/10.1136%2Fbmj.2.4575.518","/wiki/PubMed_Central","//www.ncbi.nlm.nih.gov/pmc/articles/PMC2091497","/wiki/PubMed_Identifier","//www.ncbi.nlm.nih.gov/pubmed/18881287","#cite_ref-9","http://ntp.niehs.nih.gov/go/15334","#cite_ref-10","http://www.accessdata.fda.gov/scripts/plantox/detail.cfm?id=1364","#cite_ref-11","http://www.nytimes.com/2009/07/29/dining/29curi.html","/w/index.php?title=Solanine&action=edit&section=10","http://ntp-server.niehs.nih.gov/index.cfm?objectid=6F5E930D-F1F6-975E-7037ACA48ABB25F4","/wiki/MedlinePlus","http://www.nlm.nih.gov/medlineplus/ency/article/002875.htm","//en.wikipedia.org/w/index.php?title=Special:CentralAutoLogin/start&type=1x1&from=enwiki","http://en.wikipedia.org/w/index.php?title=Solanine&oldid=564796983","/wiki/Help:Categories","/wiki/Category:Steroidal_alkaloids","/wiki/Category:Alkaloid_glycosides","/wiki/Category:Chemical_compounds_found_in_potatoes","/wiki/Category:Chemical_compounds_found_in_tomatoes","/wiki/Category:Steroidal_alkaloids_found_in_Solanaceae","/wiki/Category:Nitrogen_heterocycles","/wiki/Category:Saponins","/wiki/Category:All_articles_with_dead_external_links","/wiki/Category:Articles_with_dead_external_links_from_March_2013","/wiki/Category:Articles_needing_additional_references_from_February_2011","/wiki/Category:All_articles_needing_additional_references","/wiki/Category:Articles_with_changed_CASNo","/wiki/Category:Chemboxes_which_contain_changes_to_verified_fields","/wiki/Category:Chemboxes_which_contain_changes_to_watched_fields","/wiki/Category:All_articles_with_unsourced_statements","/wiki/Category:Articles_with_unsourced_statements_from_September_2009","/wiki/Category:Articles_with_unsourced_statements_from_November_2010","/wiki/Category:Articles_with_unsourced_statements_from_June_2009","/wiki/Category:Use_dmy_dates_from_February_2011","/w/index.php?title=Special:UserLogin&returnto=Solanine&type=signup","/w/index.php?title=Special:UserLogin&returnto=Solanine","/wiki/Solanine","/wiki/Talk:Solanine","#","/wiki/Solanine","/w/index.php?title=Solanine&action=edit","/w/index.php?title=Solanine&action=history","#","/w/index.php","//bits.wikimedia.org/static-1.22wmf11/skins/vector/images/search-ltr.png?303-4","/wiki/Main_Page","/wiki/Main_Page","/wiki/Portal:Contents","/wiki/Portal:Featured_content","/wiki/Portal:Current_events","/wiki/Special:Random","//donate.wikimedia.org/wiki/Special:FundraiserRedirector?utm_source=donate&utm_medium=sidebar&utm_campaign=C13_en.wikipedia.org&uselang=en","/wiki/Help:Contents","/wiki/Wikipedia:About","/wiki/Wikipedia:Community_portal","/wiki/Special:RecentChanges","//en.wikipedia.org/wiki/Wikipedia:Contact_us","/wiki/Special:WhatLinksHere/Solanine","/wiki/Special:RecentChangesLinked/Solanine","/wiki/Wikipedia:File_Upload_Wizard","/wiki/Special:SpecialPages","/w/index.php?title=Solanine&oldid=564796983","/w/index.php?title=Solanine&action=info","//www.wikidata.org/wiki/Q373791","/w/index.php?title=Special:Cite&page=Solanine&id=564796983","/w/index.php?title=Special:Book&bookcmd=book_creator&referer=Solanine","/w/index.php?title=Special:Book&bookcmd=render_article&arttitle=Solanine&oldid=564796983&writer=rl","/w/index.php?title=Solanine&printable=yes","//ar.wikipedia.org/wiki/%D8%B3%D9%88%D9%84%D8%A7%D9%86%D9%8A%D9%86","//be.wikipedia.org/wiki/%D0%A1%D0%B0%D0%BB%D0%B0%D0%BD%D1%96%D0%BD","//ca.wikipedia.org/wiki/Solanina","//cs.wikipedia.org/wiki/Solanin","//de.wikipedia.org/wiki/Solanin","//et.wikipedia.org/wiki/Solaniin","//es.wikipedia.org/wiki/Solanina","//eo.wikipedia.org/wiki/Solanino","//fa.wikipedia.org/wiki/%D8%B3%D9%88%D9%84%D8%A7%D9%86%DB%8C%D9%86","//fr.wikipedia.org/wiki/Solanine","//gl.wikipedia.org/wiki/Solanina","//id.wikipedia.org/wiki/Solanina","//is.wikipedia.org/wiki/S%C3%B3lan%C3%ADn","//it.wikipedia.org/wiki/Solanina","//hu.wikipedia.org/wiki/Szolanin","//nl.wikipedia.org/wiki/Solanine","//ja.wikipedia.org/wiki/%E3%82%BD%E3%83%A9%E3%83%8B%E3%83%B3","//no.wikipedia.org/wiki/Solanin","//pl.wikipedia.org/wiki/Solanina","//pt.wikipedia.org/wiki/Solanina","//ro.wikipedia.org/wiki/Solanin%C4%83","//ru.wikipedia.org/wiki/%D0%A1%D0%BE%D0%BB%D0%B0%D0%BD%D0%B8%D0%BD","//sl.wikipedia.org/wiki/Solanin","//fi.wikipedia.org/wiki/Solaniini","//sv.wikipedia.org/wiki/Solanin","//uk.wikipedia.org/wiki/%D0%A1%D0%BE%D0%BB%D0%B0%D0%BD%D1%96%D0%BD","//zh.wikipedia.org/wiki/%E8%8C%84%E7%A2%B1","#","//www.wikidata.org/wiki/Q373791#sitelinks-wikipedia","//en.wikipedia.org/wiki/Wikipedia:Text_of_Creative_Commons_Attribution-ShareAlike_3.0_Unported_License","//creativecommons.org/licenses/by-sa/3.0/","//wikimediafoundation.org/wiki/Terms_of_Use","//wikimediafoundation.org/wiki/Privacy_policy","//www.wikimediafoundation.org/","//wikimediafoundation.org/wiki/Privacy_policy","/wiki/Wikipedia:About","/wiki/Wikipedia:General_disclaimer","//en.wikipedia.org/wiki/Wikipedia:Contact_us","//en.m.wikipedia.org/wiki/Solanine","//wikimediafoundation.org/","//bits.wikimedia.org/images/wikimedia-button.png","//www.mediawiki.org/","//bits.wikimedia.org/static-1.22wmf11/skins/common/images/poweredby_mediawiki_88x31.png","//bits.wikimedia.org/en.wikipedia.org/load.php?debug=false&lang=en&modules=site&only=scripts&skin=vector&*"],"instances":["chemistry","food"],"pdf":[],"categories":["Steroidal alkaloids","Alkaloid glycosides","Chemical compounds found in potatoes","Chemical compounds found in tomatoes","Steroidal alkaloids found in Solanaceae","Nitrogen heterocycles","Saponins"],"headings":["Solanine poisoning","Solanine in potatoes","Solanine in tomatoes","Other uses of solanine","See also","References","External links"],"image":["//upload.wikimedia.org/wikipedia/en/thumb/9/99/Question_book-new.svg/50px-Question_book-new.svg.png","//upload.wikimedia.org/wikipedia/commons/thumb/5/58/Solanine_chemical_structure.png/250px-Solanine_chemical_structure.png","//upload.wikimedia.org/wikipedia/commons/thumb/2/2c/Solanine_3d_structure.png/200px-Solanine_3d_structure.png","//upload.wikimedia.org/wikipedia/commons/thumb/a/a2/X_mark.svg/7px-X_mark.svg.png","//upload.wikimedia.org/wikipedia/en/thumb/f/fb/Yes_check.svg/7px-Yes_check.svg.png","//upload.wikimedia.org/wikipedia/en/thumb/f/fb/Yes_check.svg/7px-Yes_check.svg.png","//upload.wikimedia.org/wikipedia/en/thumb/f/fb/Yes_check.svg/7px-Yes_check.svg.png","//upload.wikimedia.org/wikipedia/en/thumb/f/fb/Yes_check.svg/7px-Yes_check.svg.png","//upload.wikimedia.org/wikipedia/commons/thumb/a/a2/X_mark.svg/14px-X_mark.svg.png","//upload.wikimedia.org/wikipedia/en/thumb/f/fb/Yes_check.svg/10px-Yes_check.svg.png","//upload.wikimedia.org/wikipedia/commons/thumb/a/a2/X_mark.svg/10px-X_mark.svg.png","//upload.wikimedia.org/wikipedia/commons/thumb/9/98/Groene_aardappels_%27Dor%C3%A9%27_%28Solanum_tuberosum_%27Dor%C3%A9%27%29.jpg/220px-Groene_aardappels_%27Dor%C3%A9%27_%28Solanum_tuberosum_%27Dor%C3%A9%27%29.jpg","//bits.wikimedia.org/static-1.22wmf9/skins/common/images/magnify-clip.png","//en.wikipedia.org/w/index.php?title=Special:CentralAutoLogin/start&type=1x1&from=enwiki","//bits.wikimedia.org/static-1.22wmf11/skins/vector/images/search-ltr.png?303-4","//bits.wikimedia.org/images/wikimedia-button.png","//bits.wikimedia.org/static-1.22wmf11/skins/common/images/poweredby_mediawiki_88x31.png"],"tags":[["drying","food"],["salt","chemistry"]],"members":["salt","drying"],"related":["Glycoalkaloid","Poison","Solanum","Solanaceae","Potato","Tomato","Leaf","Fruit","Tuber","Fungicide","Pesticide","Plant_defense_against_herbivory","Berry","Vomiting","Cardiac_dysrhythmia","Nightmare","Hallucination","Paralysis","Fever","Jaundice","Pupillary_dilation","Hypothermia","Cholinesterase","Teratology","Mitochondrion","Potassium_channel","Membrane_potential","Apoptosis","World_Journal_of_Gastroenterology","Phytophthora_infestans","Glycoalkaloid","Congenital_disorder","Spina_bifida","Birth_defect","Potato","Tomato","Eggplant","Chaconine","Plant_defense_against_herbivory","Insect","Disease","Herbivore","Leaf","Plant_stem","Shoot","Tuber","Chlorophyll","Chaconine","Phytophthora_infestans","Vomiting","Diarrhea","Gastroenteritis","National_Institutes_of_Health","Deep_frying","Microwave_oven","Freeze_drying","Drying_(food)","Tomato","Tomatine","Harold_McGee","Fungicide","Pesticide","Salt_(chemistry)","Sedative","Anticonvulsant","Asthma","Cough","Common_cold","Solanidine"]}