{"cursor":"7115","size":15,"audio":[],"currentlang":"en","article":"{{chembox\n| Watchedfields = changed verifiedrevid = 470482530 Name = Sulfuryl chloride\n| ImageFile = Sulfuryl-chloride-2D-dimensions.png ImageSize = 160px ImageName =\n| Structure and dimensions of sulfuryl chloride ImageFile1 = Sulfuryl-chloride-3D-\n| vdW.png ImageSize1 = 140px ImageName1 = Ball-and-stick model of sulfuryl\n| chloride ImageFile2 = Sulphuryl chloride 25ml.jpg IUPACName = Sulfuryl\n| chloride OtherNames = Sulfonyl chloride Sulfuric chloride Section1 =\n| {{Chembox Identifiers ChemSpiderID_Ref = ChemSpiderID = 23050 PubChem = 24648\n| InChI = 1/Cl2O2S/c1-5(2,3)4 InChIKey = YBBRCQOCSYXUOC-UHFFFAOYAD ChEBI_Ref =\n| ChEBI = 29291 SMILES = ClS(Cl)(=O)=O StdInChI_Ref = StdInChI = 1S/Cl2O2S/c1-\n| 5(2,3)4 StdInChIKey_Ref = StdInChIKey = YBBRCQOCSYXUOC-UHFFFAOYSA-N CASNo =\n| 7791-25-5 CASNo_Ref = EINECS = 232-245-6\n  }}\n| Section2 = {{Chembox Properties Formula = SO 2Cl 2\n| MolarMass = 134.9698 g mol −1 Density = 1.67 g cm −3 (20\n| °C) Appearance = Colorless liquid with a pungent odor. Yellows upon standing.\n| Solubility = hydrolyzes SolubleOther = miscible with benzene, toluene,\n| chloroform, CCl 4, glacial acetic acid MeltingPt = −54.1 °C, 219.1 K\n| BoilingPt = 69.4 °C, 342.6 K RefractIndex = 1.4437 (20 °C) \n  }}\n| Section7 = {{Chembox Hazards ExternalMSDS = EUClass = Corrosive ('C') EUIndex\n| = 016-016-00-6 NFPA-H = 3 NFPA-F = 0 NFPA-R = 2 NFPA-O = W RPhrases = , ,\n| SPhrases = , , , FlashPt = Not flammable PEL =\n  }}\n| Section8 = {{Chembox Related OtherFunctn = Sulfuryl fluoride Function =\n| sulfuryl halides OtherCpds = Thionyl chloride Chlorosulfonic acid Sulfuric acid\n  }} }} 'Sulfuryl chloride' is an inorganic compound with the formula\n  SO 2Cl 2. At room temperature, it is a colorless liquid\n  with a pungent odor. Sulfuryl chloride is not found in nature, as can be\n  inferred from its rapid hydrolysis.\n\nSulfuryl chloride is commonly confused with thionyl chloride, SOCl 2.\nThe properties of these two sulfur oxychlorides are quite different: sulfuryl\nchloride is a source of chlorine whereas thionyl chloride is a source of\nchloride ions. An alternative IUPAC name is sulfuroyl dichloride.\n","linknr":217,"url":"Sulfuryl_chloride","recorded":1374764007,"links":["/w/index.php?title=Sulfuryl_chloride&action=edit","/w/index.php?title=Sulfuryl_chloride&action=edit","//bits.wikimedia.org/favicon/wikipedia.ico","/w/opensearch_desc.php","//en.wikipedia.org/w/api.php?action=rsd","//creativecommons.org/licenses/by-sa/3.0/","/w/index.php?title=Special:RecentChanges&feed=atom","//bits.wikimedia.org/en.wikipedia.org/load.php?debug=false&lang=en&modules=ext.gadget.DRN-wizard%2CReferenceTooltips%2Ccharinsert%2Cteahouse%7Cext.rtlcite%2Cwikihiero%7Cext.uls.nojs%7Cmediawiki.legacy.commonPrint%2Cshared%7Cmw.PopUpMediaTransform%7Cskins.vector&only=styles&skin=vector&*","//bits.wikimedia.org/en.wikipedia.org/load.php?debug=false&lang=en&modules=site&only=styles&skin=vector&*","//bits.wikimedia.org/en.wikipedia.org/load.php?debug=false&lang=en&modules=startup&only=scripts&skin=vector&*","//bits.wikimedia.org/geoiplookup","//meta.wikimedia.org","#mw-navigation","#p-search","/wiki/File:Sulfuryl-chloride-2D-dimensions.png","//upload.wikimedia.org/wikipedia/commons/thumb/b/b7/Sulfuryl-chloride-2D-dimensions.png/160px-Sulfuryl-chloride-2D-dimensions.png","/wiki/File:Sulfuryl-chloride-3D-vdW.png","//upload.wikimedia.org/wikipedia/commons/thumb/d/d6/Sulfuryl-chloride-3D-vdW.png/140px-Sulfuryl-chloride-3D-vdW.png","/wiki/File:Sulphuryl_chloride_25ml.jpg","//upload.wikimedia.org/wikipedia/commons/thumb/9/9f/Sulphuryl_chloride_25ml.jpg/200px-Sulphuryl_chloride_25ml.jpg","/wiki/International_Union_of_Pure_and_Applied_Chemistry_nomenclature","/wiki/CAS_registry_number","http://www.commonchemistry.org/ChemicalDetail.aspx?ref=7791-25-5","//upload.wikimedia.org/wikipedia/en/thumb/f/fb/Yes_check.svg/7px-Yes_check.svg.png","/wiki/PubChem","http://pubchem.ncbi.nlm.nih.gov/summary/summary.cgi?cid=24648","/wiki/ChemSpider","http://www.chemspider.com/23050","//upload.wikimedia.org/wikipedia/en/thumb/f/fb/Yes_check.svg/7px-Yes_check.svg.png","/wiki/EC_number_(chemistry)","http://esis.jrc.ec.europa.eu/lib/einecs_IS_reponse.php?genre=ECNO&entree=232-245-6","/wiki/ChEBI","https://www.ebi.ac.uk/chebi/searchId.do?chebiId=29291","//upload.wikimedia.org/wikipedia/en/thumb/f/fb/Yes_check.svg/7px-Yes_check.svg.png","/wiki/Jmol","http://chemapps.stolaf.edu/jmol/jmol.php?model=ClS%28Cl%29%28%3DO%29%3DO","/wiki/Simplified_molecular-input_line-entry_system","/wiki/International_Chemical_Identifier","//upload.wikimedia.org/wikipedia/en/thumb/f/fb/Yes_check.svg/7px-Yes_check.svg.png","//upload.wikimedia.org/wikipedia/en/thumb/f/fb/Yes_check.svg/7px-Yes_check.svg.png","/wiki/Chemical_formula","/wiki/Molar_mass","/wiki/Density","/wiki/Melting_point","/wiki/Boiling_point","/wiki/Solubility","/wiki/Water","/wiki/Solubility","/wiki/Benzene","/wiki/Toluene","/wiki/Chloroform","/wiki/Carbon_tetrachloride","/wiki/Acetic_acid","/wiki/Refractive_index","#cite_note-1","/wiki/Dangerous_Substances_Directive_(67/548/EEC)","/wiki/List_of_R-phrases","/wiki/R14:_Reacts_violently_with_water","/wiki/R34:_Causes_burns","/wiki/R37:_Irritating_to_respiratory_system","/wiki/List_of_S-phrases","/wiki/(S1/2):_Keep_locked_up_and_out_of_the_reach_of_children","/wiki/S26:_In_case_of_contact_with_eyes,_rinse_immediately_with_plenty_of_water_and_seek_medical_advice","/wiki/S30:_Never_add_water_to_this_product","/wiki/S45:_In_case_of_accident_or_if_you_feel_unwell_seek_medical_advice_immediately_(show_the_label_where_possible)","/wiki/NFPA_704","/wiki/File:NFPA_704.svg","//upload.wikimedia.org/wikipedia/commons/thumb/6/6f/NFPA_704.svg/75px-NFPA_704.svg.png","/wiki/Flash_point","/wiki/Sulfuryl_fluoride","/wiki/Thionyl_chloride","/wiki/Chlorosulfonic_acid","/wiki/Sulfuric_acid","//upload.wikimedia.org/wikipedia/en/thumb/f/fb/Yes_check.svg/14px-Yes_check.svg.png","//en.wikipedia.org/w/index.php?title=Special:ComparePages&rev1=470482530&page2=Sulfuryl+chloride","/wiki/Wikipedia:WikiProject_Chemicals/Chembox_validation","//upload.wikimedia.org/wikipedia/en/thumb/f/fb/Yes_check.svg/10px-Yes_check.svg.png","//upload.wikimedia.org/wikipedia/commons/thumb/a/a2/X_mark.svg/10px-X_mark.svg.png","/wiki/Standard_state","/wiki/Wikipedia:Chemical_infobox#References","/wiki/Room_temperature","/wiki/Hydrolysis","/wiki/Thionyl_chloride","/wiki/Chlorine","/wiki/Chloride","#Structure","#Synthesis","#Reactions","#Uses","#Precautions","#References","#Further_reading","/w/index.php?title=Sulfuryl_chloride&action=edit&section=1","/wiki/Dative_bond","/wiki/Double_bond","#cite_note-2","/wiki/Oxidation_number","/w/index.php?title=Sulfuryl_chloride&action=edit&section=2","/wiki/Sulfur_dioxide","/wiki/Chlorine","/wiki/Catalyst","/wiki/Activated_carbon","/wiki/Fractional_distillation","#cite_note-3","/w/index.php?title=Sulfuryl_chloride&action=edit&section=3","/wiki/Water_(molecule)","/wiki/Hydrogen_chloride","/wiki/Sulfuric_acid","/wiki/Decomposition","/wiki/Sulfur_dioxide","/wiki/Chlorine","/w/index.php?title=Sulfuryl_chloride&action=edit&section=4","/wiki/Reagent","/wiki/Alkane","/wiki/Alkene","/wiki/Alkyne","/wiki/Aromatic_ring","/wiki/Epoxide","/wiki/Free_radical","/wiki/Azobisisobutyronitrile","/wiki/Disulfide","/wiki/Sulfenyl_chloride","/wiki/Alcohol","/wiki/Alkyl_chloride","/w/index.php?title=Sulfuryl_chloride&action=edit&section=5","/wiki/Lachrymatory_agent","/wiki/Dimethyl_sulfoxide","/wiki/Dimethylformamide","/w/index.php?title=Sulfuryl_chloride&action=edit&section=6","#cite_ref-1","/wiki/International_Standard_Book_Number","/wiki/Special:BookSources/0-07-049439-8","#cite_ref-2","/wiki/Digital_object_identifier","http://dx.doi.org/10.1039%2FA700708F","#cite_ref-3","http://www.eoearth.org/article/Sulfur?topic=49557","http://www.chem.unep.ch/irptc/sids/OECDSIDS/7791255.pdf","http://onlinelibrary.wiley.com/o/eros/articles/rs140/frame.html","/wiki/Digital_object_identifier","http://dx.doi.org/10.1002%2F047084289X.rs140","/w/index.php?title=Sulfuryl_chloride&action=edit&section=7","http://www.orgsyn.org/orgsyn/orgsyn/prepContent.asp?prep=v79p0251","/wiki/Organic_Syntheses","/wiki/Industrial_and_Engineering_Chemistry","/wiki/Digital_object_identifier","http://dx.doi.org/10.1021%2Fie50172a008","http://en.wikipedia.org/w/index.php?title=Sulfuryl_chloride&oldid=556940852","/wiki/Help:Categories","/wiki/Category:Oxohalides","/wiki/Category:Sulfuryl_compounds","/wiki/Category:Chemboxes_which_contain_changes_to_watched_fields","/w/index.php?title=Special:UserLogin&returnto=Sulfuryl+chloride&type=signup","/w/index.php?title=Special:UserLogin&returnto=Sulfuryl+chloride","/wiki/Sulfuryl_chloride","/wiki/Talk:Sulfuryl_chloride","#","/wiki/Sulfuryl_chloride","/w/index.php?title=Sulfuryl_chloride&action=edit","/w/index.php?title=Sulfuryl_chloride&action=history","#","/w/index.php","//bits.wikimedia.org/static-1.22wmf9/skins/vector/images/search-ltr.png?303-4","/wiki/Main_Page","/wiki/Main_Page","/wiki/Portal:Contents","/wiki/Portal:Featured_content","/wiki/Portal:Current_events","/wiki/Special:Random","//donate.wikimedia.org/wiki/Special:FundraiserRedirector?utm_source=donate&utm_medium=sidebar&utm_campaign=C13_en.wikipedia.org&uselang=en","/wiki/Help:Contents","/wiki/Wikipedia:About","/wiki/Wikipedia:Community_portal","/wiki/Special:RecentChanges","//en.wikipedia.org/wiki/Wikipedia:Contact_us","/wiki/Special:WhatLinksHere/Sulfuryl_chloride","/wiki/Special:RecentChangesLinked/Sulfuryl_chloride","/wiki/Wikipedia:File_Upload_Wizard","/wiki/Special:SpecialPages","/w/index.php?title=Sulfuryl_chloride&oldid=556940852","/w/index.php?title=Sulfuryl_chloride&action=info","//www.wikidata.org/wiki/Q409926","/w/index.php?title=Special:Cite&page=Sulfuryl_chloride&id=556940852","/w/index.php?title=Special:Book&bookcmd=book_creator&referer=Sulfuryl+chloride","/w/index.php?title=Special:Book&bookcmd=render_article&arttitle=Sulfuryl+chloride&oldid=556940852&writer=rl","/w/index.php?title=Sulfuryl_chloride&printable=yes","//cs.wikipedia.org/wiki/Chlorid_sulfurylu","//de.wikipedia.org/wiki/Sulfurylchlorid","//es.wikipedia.org/wiki/Cloruro_de_sulfurilo","//fa.wikipedia.org/wiki/%D8%B3%D9%88%D9%84%D9%81%D9%88%D8%B1%DB%8C%D9%84_%DA%A9%D9%84%D8%B1%DB%8C%D8%AF","//fr.wikipedia.org/wiki/Chlorure_de_sulfuryle","//it.wikipedia.org/wiki/Cloruro_di_solforile","//hu.wikipedia.org/wiki/Szulfonil-klorid","//nl.wikipedia.org/wiki/Sulfurylchloride","//ja.wikipedia.org/wiki/%E5%A1%A9%E5%8C%96%E3%82%B9%E3%83%AB%E3%83%95%E3%83%AA%E3%83%AB","//pl.wikipedia.org/wiki/Chlorek_sulfurylu","//pt.wikipedia.org/wiki/Cloreto_de_sulfurila","//ru.wikipedia.org/wiki/%D0%A1%D1%83%D0%BB%D1%8C%D1%84%D1%83%D1%80%D0%B8%D0%BB%D1%85%D0%BB%D0%BE%D1%80%D0%B8%D0%B4","//fi.wikipedia.org/wiki/Sulfuryylikloridi","//sv.wikipedia.org/wiki/Sulfurylklorid","//zh.wikipedia.org/wiki/%E7%A1%AB%E9%85%B0%E6%B0%AF","#","//www.wikidata.org/wiki/Q409926#sitelinks-wikipedia","//en.wikipedia.org/wiki/Wikipedia:Text_of_Creative_Commons_Attribution-ShareAlike_3.0_Unported_License","//creativecommons.org/licenses/by-sa/3.0/","//wikimediafoundation.org/wiki/Terms_of_Use","//wikimediafoundation.org/wiki/Privacy_policy","//www.wikimediafoundation.org/","//wikimediafoundation.org/wiki/Privacy_policy","/wiki/Wikipedia:About","/wiki/Wikipedia:General_disclaimer","//en.wikipedia.org/wiki/Wikipedia:Contact_us","//en.m.wikipedia.org/wiki/Sulfuryl_chloride","//wikimediafoundation.org/","//bits.wikimedia.org/images/wikimedia-button.png","//www.mediawiki.org/","//bits.wikimedia.org/static-1.22wmf9/skins/common/images/poweredby_mediawiki_88x31.png","//bits.wikimedia.org/en.wikipedia.org/load.php?debug=false&lang=en&modules=site&only=scripts&skin=vector&*"],"instances":["molecule"],"pdf":["http://www.chem.unep.ch/irptc/sids/OECDSIDS/7791255.pdf"],"categories":["Oxohalides","Sulfuryl compounds"],"headings":["Structure","Synthesis","Reactions","Uses","Precautions","References","Further reading"],"image":["//upload.wikimedia.org/wikipedia/commons/thumb/b/b7/Sulfuryl-chloride-2D-dimensions.png/160px-Sulfuryl-chloride-2D-dimensions.png","//upload.wikimedia.org/wikipedia/commons/thumb/d/d6/Sulfuryl-chloride-3D-vdW.png/140px-Sulfuryl-chloride-3D-vdW.png","//upload.wikimedia.org/wikipedia/commons/thumb/9/9f/Sulphuryl_chloride_25ml.jpg/200px-Sulphuryl_chloride_25ml.jpg","//upload.wikimedia.org/wikipedia/en/thumb/f/fb/Yes_check.svg/7px-Yes_check.svg.png","//upload.wikimedia.org/wikipedia/en/thumb/f/fb/Yes_check.svg/7px-Yes_check.svg.png","//upload.wikimedia.org/wikipedia/en/thumb/f/fb/Yes_check.svg/7px-Yes_check.svg.png","//upload.wikimedia.org/wikipedia/en/thumb/f/fb/Yes_check.svg/7px-Yes_check.svg.png","//upload.wikimedia.org/wikipedia/en/thumb/f/fb/Yes_check.svg/7px-Yes_check.svg.png","//upload.wikimedia.org/wikipedia/commons/thumb/6/6f/NFPA_704.svg/75px-NFPA_704.svg.png","//upload.wikimedia.org/wikipedia/en/thumb/f/fb/Yes_check.svg/14px-Yes_check.svg.png","//upload.wikimedia.org/wikipedia/en/thumb/f/fb/Yes_check.svg/10px-Yes_check.svg.png","//upload.wikimedia.org/wikipedia/commons/thumb/a/a2/X_mark.svg/10px-X_mark.svg.png","//bits.wikimedia.org/static-1.22wmf9/skins/vector/images/search-ltr.png?303-4","//bits.wikimedia.org/images/wikimedia-button.png","//bits.wikimedia.org/static-1.22wmf9/skins/common/images/poweredby_mediawiki_88x31.png"],"tags":[["water","molecule"]],"members":["water"],"related":["Benzene","Toluene","Chloroform","Carbon_tetrachloride","Acetic_acid","Sulfuryl_fluoride","Thionyl_chloride","Chlorosulfonic_acid","Sulfuric_acid","Room_temperature","Hydrolysis","Thionyl_chloride","Chlorine","Chloride","Dative_bond","Double_bond","Oxidation_number","Sulfur_dioxide","Chlorine","Catalyst","Activated_carbon","Fractional_distillation","Water_(molecule)","Hydrogen_chloride","Sulfuric_acid","Decomposition","Sulfur_dioxide","Chlorine","Reagent","Alkane","Alkene","Alkyne","Aromatic_ring","Epoxide","Free_radical","Azobisisobutyronitrile","Disulfide","Sulfenyl_chloride","Alcohol","Alkyl_chloride","Lachrymatory_agent","Dimethyl_sulfoxide","Dimethylformamide"]}