{"cursor":"4520","size":15,"audio":[],"currentlang":"en","article":"{{Chembox\n| verifiedrevid = 470602628 ImageFile = Terpyridine.svg ImageSize = IUPACName =\n| 2,6-bis(2-pyridyl)pyridine OtherNames = tripyridyl Section1 = {{Chembox\n| Identifiers InChI = 1/C15H11N3/c1-3-10-16-12(6-1)14-8-5-9-15(18-14)13-7-2-4-11-17-13/h1-\n| 11H InChIKey = DRGAZIDRYFYHIJ-UHFFFAOYAP ChEMBL_Ref = ChEMBL = 89445\n| StdInChI_Ref = StdInChI =1S/C15H11N3/c1-3-10-16-12(6-1)14-8-5-9-15(18-14)13-7-2-4-11-17-13/h1-\n| 11H StdInChIKey_Ref = StdInChIKey = DRGAZIDRYFYHIJ-UHFFFAOYSA-N CASNo_Ref =\n| CASNo = 1148-79-4 PubChem = 70848 ChemSpiderID_Ref = ChemSpiderID = 64012\n| ChEBI_Ref = ChEBI = 245199 SMILES = c1ccnc(c1)c2cccc(n2)c3ccccn3\n  }}\n| Section2 = {{Chembox Properties C=15 | H=11 | N=3 Appearance = colourless\n| solid Density = MeltingPt = 88 °C BoilingPt = 370 °C\n| Solubility =\n  }}\n| Section3 = {{Chembox Hazards MainHazards = FlashPt = Autoignition =\n  }} }} 'Terpyridine' (2,2';6',2\"-terpyridine, often abbreviated to 'terpy' or\n  tpy) is a heterocyclic compound derived from pyridine. This colourless solid\n  is used as a ligand in coordination chemistry.\n","linknr":159,"url":"Terpyridine","recorded":1374545643,"links":["/w/index.php?title=Terpyridine&action=edit","/w/index.php?title=Terpyridine&action=edit","//bits.wikimedia.org/favicon/wikipedia.ico","/w/opensearch_desc.php","//en.wikipedia.org/w/api.php?action=rsd","//creativecommons.org/licenses/by-sa/3.0/","/w/index.php?title=Special:RecentChanges&feed=atom","//bits.wikimedia.org/en.wikipedia.org/load.php?debug=false&lang=en&modules=ext.gadget.DRN-wizard%2CReferenceTooltips%2Ccharinsert%2Cteahouse%7Cext.rtlcite%2Cwikihiero%7Cext.uls.nojs%7Cmediawiki.legacy.commonPrint%2Cshared%7Cmw.PopUpMediaTransform%7Cskins.vector&only=styles&skin=vector&*","//bits.wikimedia.org/en.wikipedia.org/load.php?debug=false&lang=en&modules=site&only=styles&skin=vector&*","//bits.wikimedia.org/en.wikipedia.org/load.php?debug=false&lang=en&modules=startup&only=scripts&skin=vector&*","//bits.wikimedia.org/geoiplookup","//meta.wikimedia.org","#mw-navigation","#p-search","/wiki/File:Terpyridine.svg","//upload.wikimedia.org/wikipedia/commons/thumb/8/85/Terpyridine.svg/200px-Terpyridine.svg.png","/wiki/International_Union_of_Pure_and_Applied_Chemistry_nomenclature","/wiki/CAS_registry_number","http://www.commonchemistry.org/ChemicalDetail.aspx?ref=1148-79-4","//upload.wikimedia.org/wikipedia/en/thumb/f/fb/Yes_check.svg/7px-Yes_check.svg.png","/wiki/PubChem","http://pubchem.ncbi.nlm.nih.gov/summary/summary.cgi?cid=70848","/wiki/ChemSpider","http://www.chemspider.com/64012","//upload.wikimedia.org/wikipedia/en/thumb/f/fb/Yes_check.svg/7px-Yes_check.svg.png","/wiki/ChEBI","https://www.ebi.ac.uk/chebi/searchId.do?chebiId=245199","//upload.wikimedia.org/wikipedia/en/thumb/f/fb/Yes_check.svg/7px-Yes_check.svg.png","/wiki/ChEMBL","https://www.ebi.ac.uk/chembldb/index.php/compound/inspect/CHEMBL89445","//upload.wikimedia.org/wikipedia/en/thumb/f/fb/Yes_check.svg/7px-Yes_check.svg.png","/wiki/Jmol","http://chemapps.stolaf.edu/jmol/jmol.php?model=c1ccnc%28c1%29c2cccc%28n2%29c3ccccn3","/wiki/Simplified_molecular-input_line-entry_system","/wiki/International_Chemical_Identifier","//upload.wikimedia.org/wikipedia/en/thumb/f/fb/Yes_check.svg/7px-Yes_check.svg.png","//upload.wikimedia.org/wikipedia/en/thumb/f/fb/Yes_check.svg/7px-Yes_check.svg.png","/wiki/Molecular_formula","/wiki/Molar_mass","/wiki/Melting_point","/wiki/Boiling_point","#cite_note-hand-1","//upload.wikimedia.org/wikipedia/en/thumb/f/fb/Yes_check.svg/14px-Yes_check.svg.png","//en.wikipedia.org/w/index.php?title=Special:ComparePages&rev1=470602628&page2=Terpyridine","/wiki/Wikipedia:WikiProject_Chemicals/Chembox_validation","//upload.wikimedia.org/wikipedia/en/thumb/f/fb/Yes_check.svg/10px-Yes_check.svg.png","//upload.wikimedia.org/wikipedia/commons/thumb/a/a2/X_mark.svg/10px-X_mark.svg.png","/wiki/Standard_state","/wiki/Wikipedia:Chemical_infobox#References","/wiki/Heterocyclic_compound","/wiki/Pyridine","/wiki/Coordination_chemistry","#Synthesis","#Properties","#Related_compounds","#See_also","#References","/w/index.php?title=Terpyridine&action=edit&section=1","/wiki/Oxidative_coupling","/wiki/Condensation","/wiki/2-acetylpyridine","/wiki/N,N-dimethylformamide","/wiki/Acetal","/wiki/Carbon_disulfide","/wiki/Methyl_iodide","/wiki/Ammonium_acetate","/wiki/Raney_nickel","/wiki/Thioether","#cite_note-2","/wiki/Palladium","/wiki/Bis-triazinyl_pyridine","/w/index.php?title=Terpyridine&action=edit&section=2","/wiki/Ligand","#cite_note-3","/wiki/Transition_metal","/wiki/Ion","/wiki/Polypyridine_complex","/wiki/2,2%27-bipyridine","/wiki/1,10-phenanthroline","/wiki/Intervalence_charge_transfer","/wiki/Redox","/wiki/Oxidation","/wiki/Luminescence","/wiki/Bipyridine","/wiki/Acetonitrile","/w/index.php?title=Terpyridine&action=edit&section=3","/wiki/Bis-triazinyl_pyridines","/w/index.php?title=Terpyridine&action=edit&section=4","/wiki/Chelating_ligand","/wiki/Pincer_ligand","/wiki/Terthiophene","/w/index.php?title=Terpyridine&action=edit&section=5","#cite_ref-hand_1-0","/wiki/International_Standard_Book_Number","/wiki/Special:BookSources/0-8493-0594-2","#cite_ref-2","http://www.orgsyn.org/orgsyn/orgsyn/prepContent.asp?prep=cv7p0476","/wiki/Organic_Syntheses","#cite_ref-3","/wiki/Digital_object_identifier","http://dx.doi.org/10.1021%2Fcr020604g","//en.wikipedia.org/w/index.php?title=Special:CentralAutoLogin/start&type=1x1&from=enwiki","http://en.wikipedia.org/w/index.php?title=Terpyridine&oldid=556188498","/wiki/Help:Categories","/wiki/Category:Chelating_agents","/wiki/Category:Pyridines","/w/index.php?title=Special:UserLogin&returnto=Terpyridine&type=signup","/w/index.php?title=Special:UserLogin&returnto=Terpyridine","/wiki/Terpyridine","/wiki/Talk:Terpyridine","#","/wiki/Terpyridine","/w/index.php?title=Terpyridine&action=edit","/w/index.php?title=Terpyridine&action=history","#","/w/index.php","//bits.wikimedia.org/static-1.22wmf10/skins/vector/images/search-ltr.png?303-4","/wiki/Main_Page","/wiki/Main_Page","/wiki/Portal:Contents","/wiki/Portal:Featured_content","/wiki/Portal:Current_events","/wiki/Special:Random","//donate.wikimedia.org/wiki/Special:FundraiserRedirector?utm_source=donate&utm_medium=sidebar&utm_campaign=C13_en.wikipedia.org&uselang=en","/wiki/Help:Contents","/wiki/Wikipedia:About","/wiki/Wikipedia:Community_portal","/wiki/Special:RecentChanges","//en.wikipedia.org/wiki/Wikipedia:Contact_us","/wiki/Special:WhatLinksHere/Terpyridine","/wiki/Special:RecentChangesLinked/Terpyridine","/wiki/Wikipedia:File_Upload_Wizard","/wiki/Special:SpecialPages","/w/index.php?title=Terpyridine&oldid=556188498","/w/index.php?title=Terpyridine&action=info","//www.wikidata.org/wiki/Q408228","/w/index.php?title=Special:Cite&page=Terpyridine&id=556188498","/w/index.php?title=Special:Book&bookcmd=book_creator&referer=Terpyridine","/w/index.php?title=Special:Book&bookcmd=render_article&arttitle=Terpyridine&oldid=556188498&writer=rl","/w/index.php?title=Terpyridine&printable=yes","//de.wikipedia.org/wiki/Terpyridin","//fa.wikipedia.org/wiki/%D8%AA%D8%B1%D9%BE%DB%8C%D8%B1%DB%8C%D8%AF%DB%8C%D9%86","//nl.wikipedia.org/wiki/Terpyridine","#","//www.wikidata.org/wiki/Q408228#sitelinks-wikipedia","//en.wikipedia.org/wiki/Wikipedia:Text_of_Creative_Commons_Attribution-ShareAlike_3.0_Unported_License","//creativecommons.org/licenses/by-sa/3.0/","//wikimediafoundation.org/wiki/Terms_of_Use","//wikimediafoundation.org/wiki/Privacy_policy","//www.wikimediafoundation.org/","//wikimediafoundation.org/wiki/Privacy_policy","/wiki/Wikipedia:About","/wiki/Wikipedia:General_disclaimer","//en.wikipedia.org/wiki/Wikipedia:Contact_us","//en.m.wikipedia.org/wiki/Terpyridine","//wikimediafoundation.org/","//bits.wikimedia.org/images/wikimedia-button.png","//www.mediawiki.org/","//bits.wikimedia.org/static-1.22wmf10/skins/common/images/poweredby_mediawiki_88x31.png","//bits.wikimedia.org/en.wikipedia.org/load.php?debug=false&lang=en&modules=site&only=scripts&skin=vector&*"],"instances":[],"pdf":[],"categories":["Chelating agents","Pyridines"],"headings":["Synthesis","Properties","Related compounds","See also","References"],"image":["//upload.wikimedia.org/wikipedia/commons/thumb/8/85/Terpyridine.svg/200px-Terpyridine.svg.png","//upload.wikimedia.org/wikipedia/en/thumb/f/fb/Yes_check.svg/7px-Yes_check.svg.png","//upload.wikimedia.org/wikipedia/en/thumb/f/fb/Yes_check.svg/7px-Yes_check.svg.png","//upload.wikimedia.org/wikipedia/en/thumb/f/fb/Yes_check.svg/7px-Yes_check.svg.png","//upload.wikimedia.org/wikipedia/en/thumb/f/fb/Yes_check.svg/7px-Yes_check.svg.png","//upload.wikimedia.org/wikipedia/en/thumb/f/fb/Yes_check.svg/7px-Yes_check.svg.png","//upload.wikimedia.org/wikipedia/en/thumb/f/fb/Yes_check.svg/7px-Yes_check.svg.png","//upload.wikimedia.org/wikipedia/en/thumb/f/fb/Yes_check.svg/14px-Yes_check.svg.png","//upload.wikimedia.org/wikipedia/en/thumb/f/fb/Yes_check.svg/10px-Yes_check.svg.png","//upload.wikimedia.org/wikipedia/commons/thumb/a/a2/X_mark.svg/10px-X_mark.svg.png","//en.wikipedia.org/w/index.php?title=Special:CentralAutoLogin/start&type=1x1&from=enwiki","//bits.wikimedia.org/static-1.22wmf10/skins/vector/images/search-ltr.png?303-4","//bits.wikimedia.org/images/wikimedia-button.png","//bits.wikimedia.org/static-1.22wmf10/skins/common/images/poweredby_mediawiki_88x31.png"],"tags":[],"members":[],"related":["Heterocyclic_compound","Pyridine","Coordination_chemistry","Oxidative_coupling","Condensation","2-acetylpyridine","N,N-dimethylformamide","Acetal","Carbon_disulfide","Methyl_iodide","Ammonium_acetate","Raney_nickel","Thioether","Palladium","Bis-triazinyl_pyridine","Ligand","Transition_metal","Ion","Polypyridine_complex","2,2'-bipyridine","1,10-phenanthroline","Intervalence_charge_transfer","Redox","Oxidation","Luminescence","Bipyridine","Acetonitrile","Bis-triazinyl_pyridines","Chelating_ligand","Pincer_ligand","Terthiophene"]}