{"cursor":"7449","size":15,"audio":[],"currentlang":"en","article":"\n{{Chembox\n| verifiedrevid = 470602673 Name = tert-Butyl alcohol ImageFileL1 = Tert-butanol-2D-\n| skeletal.png ImageFileL1_Ref = ImageSizeL1 = 111 ImageNameL1 = Skeletal\n| formula of tert-butanol ImageFileR1 = Tert-butanol-3D-balls.png\n| ImageFileR1_Ref = ImageSizeR1 = 131 ImageNameR1 = Ball and stick model of tert-\n| butanol ImageFile3 = TBuOH_1133.jpg ImageFile3_Ref = ImageName3 = Sample of\n| partially crystalised tert-butanol IUPACName = 2-Methylpropan-2-ol OtherNames = tert-Butanol\n2-Methyl-2-propanol\n| Section1 = {{Chembox Identifiers CASNo = 75-65-0 CASNo_Ref = PubChem = 6386\n| PubChem_Ref = ChemSpiderID = 6146 ChemSpiderID_Ref = UNII_Ref = UNII =\n| MD83SFE959 EINECS = 200-889-7 UNNumber = 1120 DrugBank = DB03900 DrugBank_Ref\n| = MeSHName = tert-Butyl+Alcohol ChEBI = 45895 ChEBI_Ref = ChEMBL = 16502\n| ChEMBL_Ref = RTECS = EO1925000 Beilstein = 906698 Gmelin = 1833 SMILES =\n| CC(C)(C)O StdInChI = 1S/C4H10O/c1-4(2,3)5/h5H,1-3H3 StdInChI_Ref = StdInChIKey\n| = DKGAVHZHDRPRBM-UHFFFAOYSA-N StdInChIKey_Ref =\n}}\n| Section2 = {{Chembox Properties C = 4 H = 10 O = 1 ExactMass = 74.073164942 g\n| mol −1 Density = 0.775 g/mL Appearance = Colorless liquid Odor =\n| Camphorous MeltingPtKL = 298 MeltingPtKH = 299 BoilingPtKL = 355 BoilingPtKH =\n| 356 LogP = 0.584 Solubility =\n| miscible http://www.inchem.org/documents/icsc/icsc/eics0114.htm\n| VaporPressure = 4.1 kPa (at 20 °C) RefractIndex = 1.387\n}}\n| Section3 = {{Chembox Thermochemistry DeltaHf = −360.04–−358.36 kJ\n| mol −1 DeltaHc = −2.64479–−2.64321 MJ mol −1 Entropy =\n| 189.5 J K −1 mol −1 HeatCapacity = 215.37 J K −1\n| mol −1\n}}\n| Section4 = {{Chembox Hazards ExternalMSDS =\n| [http://www.inchem.org/documents/icsc/icsc/eics0114.htm inchem.org]\n| GHSPictograms = GHSSignalWord = 'DANGER' HPhrases = PPhrases = EUIndex = 603-005-00-\n| 1 EUClass = RPhrases = , , SPhrases = , , , NFPA-H = 1 NFPA-F = 3 NFPA-R = 0\n| FlashPt = 11 °C Autoignition = 480 °C ExploLimits = 2.4–8.0%\n}}\n| Section5 = {{Chembox Related Function = butanols OtherFunctn = 2-Butanol\n''n''-Butanol Isobutanol\n|  OtherCpds = 2-Methyl-2-butanol  Trimethylsilanol\n}} }}\n\n'tert-Butyl alcohol (TBA)', or 2-methyl-2-propanol (2M2P), is the simplest\ntertiary alcohol. It is one of the four isomers of butanol. tert-Butanol is a\nclear liquid (or a colorless solid, depending on the ambient temperature) with a\ncamphor-like odor. It is very soluble in water and miscible with ethanol and\ndiethyl ether. It is unique among the isomers of butanol because it tends to be\na solid at room temperature, with a melting point slightly above 25 °C.\n","linknr":343,"url":"Tert-butyl_alcohol","recorded":1374861372,"links":["/w/index.php?title=Tert-Butyl_alcohol&action=edit","/w/index.php?title=Tert-Butyl_alcohol&action=edit","//bits.wikimedia.org/favicon/wikipedia.ico","/w/opensearch_desc.php","//en.wikipedia.org/w/api.php?action=rsd","//creativecommons.org/licenses/by-sa/3.0/","/w/index.php?title=Special:RecentChanges&feed=atom","/wiki/Tert-Butyl_alcohol","//bits.wikimedia.org/en.wikipedia.org/load.php?debug=false&lang=en&modules=ext.gadget.DRN-wizard%2CReferenceTooltips%2Ccharinsert%2Cteahouse%7Cext.rtlcite%2Cwikihiero%7Cext.uls.nojs%7Cmediawiki.legacy.commonPrint%2Cshared%7Cmw.PopUpMediaTransform%7Cskins.vector&only=styles&skin=vector&*","//bits.wikimedia.org/en.wikipedia.org/load.php?debug=false&lang=en&modules=site&only=styles&skin=vector&*","//bits.wikimedia.org/en.wikipedia.org/load.php?debug=false&lang=en&modules=startup&only=scripts&skin=vector&*","//bits.wikimedia.org/geoiplookup","//meta.wikimedia.org","/w/index.php?title=Tert-butyl_alcohol&redirect=no","#mw-navigation","#p-search","/wiki/File:Tert-butanol-2D-skeletal.png","//upload.wikimedia.org/wikipedia/commons/thumb/4/4e/Tert-butanol-2D-skeletal.png/111px-Tert-butanol-2D-skeletal.png","/wiki/File:Tert-butanol-3D-balls.png","//upload.wikimedia.org/wikipedia/commons/thumb/6/6c/Tert-butanol-3D-balls.png/131px-Tert-butanol-3D-balls.png","/wiki/File:TBuOH_1133.jpg","//upload.wikimedia.org/wikipedia/commons/thumb/f/f4/TBuOH_1133.jpg/200px-TBuOH_1133.jpg","/wiki/International_Union_of_Pure_and_Applied_Chemistry_nomenclature","#cite_note-pubchem-1","#cite_note-pubchem-1","#cite_note-pubchem-1","/wiki/CAS_registry_number","http://www.commonchemistry.org/ChemicalDetail.aspx?ref=75-65-0","//upload.wikimedia.org/wikipedia/en/thumb/f/fb/Yes_check.svg/7px-Yes_check.svg.png","/wiki/PubChem","http://pubchem.ncbi.nlm.nih.gov/summary/summary.cgi?cid=6386","/wiki/ChemSpider","http://www.chemspider.com/6146","//upload.wikimedia.org/wikipedia/en/thumb/f/fb/Yes_check.svg/7px-Yes_check.svg.png","/wiki/Unique_Ingredient_Identifier","http://fdasis.nlm.nih.gov/srs/srsdirect.jsp?regno=MD83SFE959","//upload.wikimedia.org/wikipedia/en/thumb/f/fb/Yes_check.svg/7px-Yes_check.svg.png","/wiki/EC_number_(chemistry)","http://esis.jrc.ec.europa.eu/lib/einecs_IS_reponse.php?genre=ECNO&entree=200-889-7","/wiki/UN_number","/wiki/DrugBank","http://www.drugbank.ca/drugs/DB03900","/wiki/Medical_Subject_Headings","http://www.nlm.nih.gov/cgi/mesh/2007/MB_cgi?mode=&term=tert-Butyl+Alcohol","/wiki/ChEBI","https://www.ebi.ac.uk/chebi/searchId.do?chebiId=45895","//upload.wikimedia.org/wikipedia/en/thumb/f/fb/Yes_check.svg/7px-Yes_check.svg.png","/wiki/ChEMBL","https://www.ebi.ac.uk/chembldb/index.php/compound/inspect/CHEMBL16502","//upload.wikimedia.org/wikipedia/en/thumb/f/fb/Yes_check.svg/7px-Yes_check.svg.png","/wiki/RTECS","/wiki/Beilstein_database","/wiki/Gmelin_database","/wiki/Jmol","http://chemapps.stolaf.edu/jmol/jmol.php?model=CC%28C%29%28C%29O","/wiki/Simplified_molecular-input_line-entry_system","/wiki/International_Chemical_Identifier","//upload.wikimedia.org/wikipedia/en/thumb/f/fb/Yes_check.svg/7px-Yes_check.svg.png","//upload.wikimedia.org/wikipedia/en/thumb/f/fb/Yes_check.svg/7px-Yes_check.svg.png","/wiki/Molecular_formula","/wiki/Molar_mass","/wiki/Odor","/wiki/Density","/wiki/Melting_point","/wiki/Boiling_point","/wiki/Solubility","/wiki/Water","#cite_note-2","/wiki/Partition_coefficient","/wiki/Vapor_pressure","/wiki/Refractive_index","/wiki/Standard_enthalpy_change_of_formation","/wiki/Standard_enthalpy_change_of_combustion","/wiki/Standard_molar_entropy","/wiki/Specific_heat_capacity","/wiki/MSDS","http://www.inchem.org/documents/icsc/icsc/eics0114.htm","/wiki/GHS_hazard_pictograms","/wiki/File:GHS-pictogram-flamme.svg","//upload.wikimedia.org/wikipedia/commons/thumb/6/6d/GHS-pictogram-flamme.svg/50px-GHS-pictogram-flamme.svg.png","/wiki/File:GHS-pictogram-exclam.svg","//upload.wikimedia.org/wikipedia/commons/thumb/c/c3/GHS-pictogram-exclam.svg/50px-GHS-pictogram-exclam.svg.png","/wiki/Globally_Harmonized_System_of_Classification_and_Labelling_of_Chemicals","/wiki/GHS_hazard_statement","/wiki/GHS_precautionary_statements","/wiki/Dangerous_Substances_Directive_(67/548/EEC)","/wiki/File:Hazard_F.svg","//upload.wikimedia.org/wikipedia/commons/thumb/0/06/Hazard_F.svg/40px-Hazard_F.svg.png","/wiki/File:Hazard_X.svg","//upload.wikimedia.org/wikipedia/commons/thumb/e/ed/Hazard_X.svg/40px-Hazard_X.svg.png","/wiki/List_of_R-phrases","/wiki/R11:_Highly_flammable","/wiki/R20:_Harmful_by_inhalation","/wiki/R36/37:_Irritating_to_eyes_and_respiratory_system","/wiki/List_of_S-phrases","/wiki/(S2):_Keep_out_of_the_reach_of_children","/wiki/S9:_Keep_container_in_a_well-ventilated_place","/wiki/S16:_Keep_away_from_sources_of_ignition_-_No_smoking","/wiki/S46:_If_swallowed,_seek_medical_advice_immediately_and_show_this_container_or_label","/wiki/NFPA_704","/wiki/File:NFPA_704.svg","//upload.wikimedia.org/wikipedia/commons/thumb/6/6f/NFPA_704.svg/75px-NFPA_704.svg.png","/wiki/Flash_point","/wiki/Autoignition_temperature","/wiki/Explosive_limit","/wiki/Butanol","/wiki/2-Butanol","/wiki/N-butanol","/wiki/Isobutanol","/wiki/2-Methyl-2-butanol","/wiki/Trimethylsilanol","//upload.wikimedia.org/wikipedia/en/thumb/f/fb/Yes_check.svg/14px-Yes_check.svg.png","//en.wikipedia.org/w/index.php?title=Special:ComparePages&rev1=470602673&page2=Tert-Butyl+alcohol","/wiki/Wikipedia:WikiProject_Chemicals/Chembox_validation","//upload.wikimedia.org/wikipedia/en/thumb/f/fb/Yes_check.svg/10px-Yes_check.svg.png","//upload.wikimedia.org/wikipedia/commons/thumb/a/a2/X_mark.svg/10px-X_mark.svg.png","/wiki/Standard_state","/wiki/Wikipedia:Chemical_infobox#References","/wiki/Alcohol#tertiary","/wiki/Isomer","/wiki/Butanol","/wiki/Camphor","/wiki/Ethanol","/wiki/Diethyl_ether","#Natural_occurence","#Preparation","#Applications","#Chemistry","#Conversion_to_alkyl_halide","#References","#External_links","/w/index.php?title=Tert-Butyl_alcohol&action=edit&section=1","#cite_note-3","/wiki/Cassava","#cite_note-4","/wiki/Alcoholic_beverage#Beverages_by_fermentation_ingredients","/w/index.php?title=Tert-Butyl_alcohol&action=edit&section=2","/wiki/Propylene_oxide","/wiki/Hydration_reaction","/wiki/Isobutylene","/wiki/Grignard_reaction","/wiki/Acetone","/wiki/Methylmagnesium_chloride","/w/index.php?title=Tert-Butyl_alcohol&action=edit&section=3","/wiki/Denatured_alcohol","/wiki/Paint_remover","/wiki/Gasoline","/wiki/Octane_rating","/wiki/Oxygenate","/wiki/MTBE","/wiki/ETBE","/wiki/TBHP","/w/index.php?title=Tert-Butyl_alcohol&action=edit&section=4","/wiki/Base_(chemistry)","/wiki/Alkoxide","/wiki/Potassium_tert-butoxide","/wiki/Potassium","#cite_note-5","/wiki/Williamson_ether_synthesis","/wiki/SN2","/w/index.php?title=Tert-Butyl_alcohol&action=edit&section=5","/wiki/Hydrogen_chloride","/wiki/Tert-Butyl_chloride","/wiki/SN1_reaction","/wiki/File:1-HCl-protonates-tBuOH-2D-skeletal.png","//upload.wikimedia.org/wikipedia/commons/thumb/2/20/1-HCl-protonates-tBuOH-2D-skeletal.png/120px-1-HCl-protonates-tBuOH-2D-skeletal.png","/wiki/File:2-water-leaves-protonated-tBuOH-2D-skeletal.png","//upload.wikimedia.org/wikipedia/commons/thumb/9/9a/2-water-leaves-protonated-tBuOH-2D-skeletal.png/120px-2-water-leaves-protonated-tBuOH-2D-skeletal.png","/wiki/File:3-chloride-attacks-tBu-cation-2D-skeletal.png","//upload.wikimedia.org/wikipedia/commons/thumb/2/27/3-chloride-attacks-tBu-cation-2D-skeletal.png/120px-3-chloride-attacks-tBu-cation-2D-skeletal.png","/wiki/File:0-SN1-tBuOH-to-tBuCl-2D-skeletal.png","//upload.wikimedia.org/wikipedia/commons/thumb/d/d0/0-SN1-tBuOH-to-tBuCl-2D-skeletal.png/250px-0-SN1-tBuOH-to-tBuCl-2D-skeletal.png","/wiki/Sigma_bonds","/wiki/Electrons","/w/index.php?title=Tert-Butyl_alcohol&action=edit&section=6","#cite_ref-pubchem_1-0","#cite_ref-pubchem_1-1","#cite_ref-pubchem_1-2","http://pubchem.ncbi.nlm.nih.gov/summary/summary.cgi?cid=6386&loc=ec_rcs","#cite_ref-2","http://www.inchem.org/documents/icsc/icsc/eics0114.htm","#cite_ref-3","http://toxnet.nlm.nih.gov/cgi-bin/sis/search/a?dbs+hsdb:@term+@DOCNO+50","#cite_ref-4","http://www.sc.mahidol.ac.th/scbc/bc_internet/publication/696.pdf","#cite_ref-5","http://www.orgsyn.org/orgsyn/orgsyn/prepContent.asp?prep=cv4p0132","/wiki/Organic_Syntheses","/w/index.php?title=Tert-Butyl_alcohol&action=edit&section=7","http://www.inchem.org/documents/icsc/icsc/eics0114.htm","/wiki/NIOSH","http://www.cdc.gov/niosh/npg/npgd0078.html","/wiki/International_Programme_on_Chemical_Safety","/wiki/Environmental_Health_Criteria","http://www.inchem.org/documents/ehc/ehc/ehc65.htm","/wiki/International_Programme_on_Chemical_Safety","/wiki/IPCS_Health_and_Safety_Guide","http://www.inchem.org/documents/hsg/hsg/hsg007.htm","/wiki/Template:Alcohols","/wiki/Template_talk:Alcohols","//en.wikipedia.org/w/index.php?title=Template:Alcohols&action=edit","/wiki/Alcohol","/wiki/IUPAC_nomenclature","/wiki/Primary_alcohol","/wiki/Methanol","/wiki/Ethanol","/wiki/1-Propanol","/wiki/N-Butanol","/wiki/1-Pentanol","/wiki/1-Hexanol","/wiki/1-Heptanol","/wiki/Octanol","/wiki/1-Nonanol","/wiki/1-Decanol","/wiki/Undecanol","/wiki/Dodecanol","/w/index.php?title=Tridecan-1-ol&action=edit&redlink=1","/wiki/1-Tetradecanol","/w/index.php?title=Pentadecan-1-ol&action=edit&redlink=1","/wiki/Cetyl_alcohol","/w/index.php?title=Heptadecan-1-ol&action=edit&redlink=1","/wiki/Stearyl_alcohol","/w/index.php?title=Nonadecan-1-ol&action=edit&redlink=1","/wiki/Arachidyl_alcohol","/w/index.php?title=Heneicosan-1-ol&action=edit&redlink=1","/wiki/Docosanol","/w/index.php?title=Tricosan-1-ol&action=edit&redlink=1","/wiki/1-Tetracosanol","/w/index.php?title=Pentacosan-1-ol&action=edit&redlink=1","/wiki/1-Hexacosanol","/wiki/1-Heptacosanol","/wiki/1-Octacosanol","/wiki/1-Nonacosanol","/wiki/Triacontanol","/wiki/Policosanol","/wiki/Isobutanol","/wiki/Isoamyl_alcohol","/wiki/Isopropyl_alcohol","/wiki/2-Butanol","/wiki/2-Pentanol","/wiki/2-Hexanol","/wiki/2-Heptanol","/wiki/2-Methyl-1-butanol","/wiki/Cyclohexanol","/wiki/Tert-Amyl_alcohol","/wiki/2-Methyl-2-pentanol","/w/index.php?title=2-Methylhexan-2-ol&action=edit&redlink=1","/w/index.php?title=2-Methylheptan-2-ol&action=edit&redlink=1","/wiki/3-Methyl-3-pentanol","/w/index.php?title=3-Methyloctan-3-ol&action=edit&redlink=1","/wiki/Biochemistry","/wiki/Template:Metabolism","/wiki/Template:Carbohydrates","/wiki/Template:Alcohols","/wiki/Template:Glycoproteins","/wiki/Template:Glycosides","/wiki/Template:Lipids","/wiki/Template:Eicosanoids","/wiki/Template:Fatty_acids","/wiki/Template:Fatty-acid_metabolism_intermediates","/wiki/Template:Phospholipids","/wiki/Template:Sphingolipids","/wiki/Template:Cholesterol_and_steroid_intermediates","/wiki/Template:Nucleic_acids","/wiki/Template:Nucleobases,_nucleosides,_and_nucleotides","/wiki/Template:Nucleotide_metabolism_intermediates","/wiki/Template:Protein_topics","/wiki/Template:AminoAcids","/wiki/Template:Amino_acid_metabolism_intermediates","/wiki/Template:Tetrapyrroles","/wiki/Template:Heme_metabolism_intermediates","//en.wikipedia.org/w/index.php?title=Special:CentralAutoLogin/start&type=1x1&from=enwiki","http://en.wikipedia.org/w/index.php?title=Tert-Butyl_alcohol&oldid=554978279","/wiki/Help:Categories","/wiki/Category:Alcohol_solvents","/wiki/Category:Tertiary_alcohols","/wiki/Category:Oxygenates","/w/index.php?title=Special:UserLogin&returnto=Tert-Butyl+alcohol&type=signup","/w/index.php?title=Special:UserLogin&returnto=Tert-Butyl+alcohol","/wiki/Tert-Butyl_alcohol","/wiki/Talk:Tert-Butyl_alcohol","#","/wiki/Tert-Butyl_alcohol","/w/index.php?title=Tert-Butyl_alcohol&action=edit","/w/index.php?title=Tert-Butyl_alcohol&action=history","#","/w/index.php","//bits.wikimedia.org/static-1.22wmf11/skins/vector/images/search-ltr.png?303-4","/wiki/Main_Page","/wiki/Main_Page","/wiki/Portal:Contents","/wiki/Portal:Featured_content","/wiki/Portal:Current_events","/wiki/Special:Random","//donate.wikimedia.org/wiki/Special:FundraiserRedirector?utm_source=donate&utm_medium=sidebar&utm_campaign=C13_en.wikipedia.org&uselang=en","/wiki/Help:Contents","/wiki/Wikipedia:About","/wiki/Wikipedia:Community_portal","/wiki/Special:RecentChanges","//en.wikipedia.org/wiki/Wikipedia:Contact_us","/wiki/Special:WhatLinksHere/Tert-Butyl_alcohol","/wiki/Special:RecentChangesLinked/Tert-Butyl_alcohol","/wiki/Wikipedia:File_Upload_Wizard","/wiki/Special:SpecialPages","/w/index.php?title=Tert-Butyl_alcohol&oldid=554978279","/w/index.php?title=Tert-Butyl_alcohol&action=info","//www.wikidata.org/wiki/Q285790","/w/index.php?title=Special:Cite&page=Tert-Butyl_alcohol&id=554978279","/w/index.php?title=Special:Book&bookcmd=book_creator&referer=Tert-Butyl+alcohol","/w/index.php?title=Special:Book&bookcmd=render_article&arttitle=Tert-Butyl+alcohol&oldid=554978279&writer=rl","/w/index.php?title=Tert-Butyl_alcohol&printable=yes","//cs.wikipedia.org/wiki/Terc-butanol","//de.wikipedia.org/wiki/Tert-Butanol","//es.wikipedia.org/wiki/Terbutanol","//fa.wikipedia.org/wiki/%D8%AA%D8%B1%D8%AA-%D8%A8%D9%88%D8%AA%D8%A7%D9%86%D9%88%D9%84","//fr.wikipedia.org/wiki/2-m%C3%A9thylpropan-2-ol","//it.wikipedia.org/wiki/2-metil-2-propanolo","//hu.wikipedia.org/wiki/Terc-butanol","//nl.wikipedia.org/wiki/2-methyl-2-propanol","//ja.wikipedia.org/wiki/Tert-%E3%83%96%E3%83%81%E3%83%AB%E3%82%A2%E3%83%AB%E3%82%B3%E3%83%BC%E3%83%AB","//pl.wikipedia.org/wiki/Tert-Butanol","//pt.wikipedia.org/wiki/Terc-Butanol","//ru.wikipedia.org/wiki/2-%D0%9C%D0%B5%D1%82%D0%B8%D0%BB%D0%BF%D1%80%D0%BE%D0%BF%D0%B0%D0%BD%D0%BE%D0%BB-2","//sr.wikipedia.org/wiki/Terc-Butanol","//fi.wikipedia.org/wiki/Tert-butanoli","//sv.wikipedia.org/wiki/Tert-Butanol","//zh.wikipedia.org/wiki/%E5%8F%94%E4%B8%81%E9%86%87","#","//www.wikidata.org/wiki/Q285790#sitelinks-wikipedia","//en.wikipedia.org/wiki/Wikipedia:Text_of_Creative_Commons_Attribution-ShareAlike_3.0_Unported_License","//creativecommons.org/licenses/by-sa/3.0/","//wikimediafoundation.org/wiki/Terms_of_Use","//wikimediafoundation.org/wiki/Privacy_policy","//www.wikimediafoundation.org/","//wikimediafoundation.org/wiki/Privacy_policy","/wiki/Wikipedia:About","/wiki/Wikipedia:General_disclaimer","//en.wikipedia.org/wiki/Wikipedia:Contact_us","//en.m.wikipedia.org/wiki/Tert-Butyl_alcohol","//wikimediafoundation.org/","//bits.wikimedia.org/images/wikimedia-button.png","//www.mediawiki.org/","//bits.wikimedia.org/static-1.22wmf11/skins/common/images/poweredby_mediawiki_88x31.png","//bits.wikimedia.org/en.wikipedia.org/load.php?debug=false&lang=en&modules=site&only=scripts&skin=vector&*"],"instances":["chemistry"],"pdf":["http://www.sc.mahidol.ac.th/scbc/bc_internet/publication/696.pdf"],"categories":["Alcohol solvents","Tertiary alcohols","Oxygenates"],"headings":["Natural occurence","Preparation","Applications","Chemistry","Conversion to alkyl halide","References","External links"],"image":["//upload.wikimedia.org/wikipedia/commons/thumb/4/4e/Tert-butanol-2D-skeletal.png/111px-Tert-butanol-2D-skeletal.png","//upload.wikimedia.org/wikipedia/commons/thumb/6/6c/Tert-butanol-3D-balls.png/131px-Tert-butanol-3D-balls.png","//upload.wikimedia.org/wikipedia/commons/thumb/f/f4/TBuOH_1133.jpg/200px-TBuOH_1133.jpg","//upload.wikimedia.org/wikipedia/en/thumb/f/fb/Yes_check.svg/7px-Yes_check.svg.png","//upload.wikimedia.org/wikipedia/en/thumb/f/fb/Yes_check.svg/7px-Yes_check.svg.png","//upload.wikimedia.org/wikipedia/en/thumb/f/fb/Yes_check.svg/7px-Yes_check.svg.png","//upload.wikimedia.org/wikipedia/en/thumb/f/fb/Yes_check.svg/7px-Yes_check.svg.png","//upload.wikimedia.org/wikipedia/en/thumb/f/fb/Yes_check.svg/7px-Yes_check.svg.png","//upload.wikimedia.org/wikipedia/en/thumb/f/fb/Yes_check.svg/7px-Yes_check.svg.png","//upload.wikimedia.org/wikipedia/en/thumb/f/fb/Yes_check.svg/7px-Yes_check.svg.png","//upload.wikimedia.org/wikipedia/commons/thumb/6/6d/GHS-pictogram-flamme.svg/50px-GHS-pictogram-flamme.svg.png","//upload.wikimedia.org/wikipedia/commons/thumb/c/c3/GHS-pictogram-exclam.svg/50px-GHS-pictogram-exclam.svg.png","//upload.wikimedia.org/wikipedia/commons/thumb/0/06/Hazard_F.svg/40px-Hazard_F.svg.png","//upload.wikimedia.org/wikipedia/commons/thumb/e/ed/Hazard_X.svg/40px-Hazard_X.svg.png","//upload.wikimedia.org/wikipedia/commons/thumb/6/6f/NFPA_704.svg/75px-NFPA_704.svg.png","//upload.wikimedia.org/wikipedia/en/thumb/f/fb/Yes_check.svg/14px-Yes_check.svg.png","//upload.wikimedia.org/wikipedia/en/thumb/f/fb/Yes_check.svg/10px-Yes_check.svg.png","//upload.wikimedia.org/wikipedia/commons/thumb/a/a2/X_mark.svg/10px-X_mark.svg.png","//upload.wikimedia.org/wikipedia/commons/thumb/2/20/1-HCl-protonates-tBuOH-2D-skeletal.png/120px-1-HCl-protonates-tBuOH-2D-skeletal.png","//upload.wikimedia.org/wikipedia/commons/thumb/9/9a/2-water-leaves-protonated-tBuOH-2D-skeletal.png/120px-2-water-leaves-protonated-tBuOH-2D-skeletal.png","//upload.wikimedia.org/wikipedia/commons/thumb/2/27/3-chloride-attacks-tBu-cation-2D-skeletal.png/120px-3-chloride-attacks-tBu-cation-2D-skeletal.png","//upload.wikimedia.org/wikipedia/commons/thumb/d/d0/0-SN1-tBuOH-to-tBuCl-2D-skeletal.png/250px-0-SN1-tBuOH-to-tBuCl-2D-skeletal.png","//en.wikipedia.org/w/index.php?title=Special:CentralAutoLogin/start&type=1x1&from=enwiki","//bits.wikimedia.org/static-1.22wmf11/skins/vector/images/search-ltr.png?303-4","//bits.wikimedia.org/images/wikimedia-button.png","//bits.wikimedia.org/static-1.22wmf11/skins/common/images/poweredby_mediawiki_88x31.png"],"tags":[["base","chemistry"]],"members":["base"],"related":["Butanol","2-Butanol","N-butanol","Isobutanol","2-Methyl-2-butanol","Trimethylsilanol","Isomer","Butanol","Camphor","Ethanol","Diethyl_ether","Cassava","Propylene_oxide","Hydration_reaction","Isobutylene","Grignard_reaction","Acetone","Methylmagnesium_chloride","Denatured_alcohol","Paint_remover","Gasoline","Octane_rating","Oxygenate","MTBE","ETBE","TBHP","Base_(chemistry)","Alkoxide","Potassium_tert-butoxide","Potassium","Williamson_ether_synthesis","SN2","Hydrogen_chloride","Tert-Butyl_chloride","SN1_reaction","Sigma_bonds","Electrons"]}