{"cursor":"5426","size":15,"audio":[],"currentlang":"en","article":"{{Chembox\n| verifiedrevid = 430001558 ImageFile = Tetramethyltin.png ImageFile_Ref =\n| ImageSize = 121 ImageName = Stereo structural formula of tetramethyltin\n| IUPACName = Tetramethylstannane http://www.chemspider.com/Chemical-\n| Structure.11171.html SytematicName =  OtherNames = Tin tetramethyl\n| Section1 = {{Chembox Identifiers CASNo = 594-27-4 CASNo_Ref = PubChem = 11661\n| PubChem_Ref = ChemSpiderID = 11171 ChemSpiderID_Ref = EINECS = 209-833-6\n| UNNumber = 3384 ChEBI_Ref = ChEBI = 30420 RTECS = WH8630000 Beilstein =\n| 3647887 Gmelin = 1938 SMILES = C[Sn](C)(C)C StdInChI = 1S/4CH3.Sn/h4*1H3;\n| StdInChI_Ref = StdInChIKey = VXKWYPOMXBVZSJ-UHFFFAOYSA-N StdInChIKey_Ref =\n}}\n| Section2 = {{Chembox Properties C = 4 H = 12 Sn = 1 ExactMass = 179.996096955\n| g mol -1 Appearance = Colorless liquid Density = 1.291 g cm -\n| 3 MeltingPtC = -54 BoilingPtCL = 74 BoilingPtCH = 76}} Section3 =\n| {{Chembox Hazards EUClass = RPhrases = , SPhrases = , , , , , NFPA-H = 3 NFPA-\n| F = 4 NFPA-R = 1 FlashPt = -12 °C}} Section4 = {{Chembox Related Function =\n| tetraalkylstannanes OtherFunctn = Tetrabutyltin\nTetraethyltin\n|  OtherCpds = Neopentane\nTetramethylsilane}} }}\n\n'Tetramethyltin' is an organometallic compound with the formula\n(CH 3) 4Sn. This liquid, one of the simplest organotin\ncompounds, is useful for transition-metal mediated conversion of acid chlorides\nto methyl ketones and aryl halides to aryl methyl ketones. It is volatile and\ntoxic, so care should be taken when using it in the laboratory.\n","linknr":177,"url":"Tetramethyltin","recorded":1374961958,"links":["/w/index.php?title=Tetramethyltin&action=edit","/w/index.php?title=Tetramethyltin&action=edit","//bits.wikimedia.org/favicon/wikipedia.ico","/w/opensearch_desc.php","//en.wikipedia.org/w/api.php?action=rsd","//creativecommons.org/licenses/by-sa/3.0/","/w/index.php?title=Special:RecentChanges&feed=atom","//bits.wikimedia.org/en.wikipedia.org/load.php?debug=false&lang=en&modules=ext.gadget.DRN-wizard%2CReferenceTooltips%2Ccharinsert%2Cteahouse%7Cext.rtlcite%2Cwikihiero%7Cext.uls.nojs%7Cmediawiki.legacy.commonPrint%2Cshared%7Cmw.PopUpMediaTransform%7Cskins.vector&only=styles&skin=vector&*","//bits.wikimedia.org/en.wikipedia.org/load.php?debug=false&lang=en&modules=site&only=styles&skin=vector&*","//bits.wikimedia.org/en.wikipedia.org/load.php?debug=false&lang=en&modules=startup&only=scripts&skin=vector&*","//bits.wikimedia.org/geoiplookup","//meta.wikimedia.org","#mw-navigation","#p-search","/wiki/File:Tetramethyltin.png","//upload.wikimedia.org/wikipedia/commons/thumb/d/db/Tetramethyltin.png/121px-Tetramethyltin.png","/wiki/International_Union_of_Pure_and_Applied_Chemistry_nomenclature","#cite_note-1","/wiki/CAS_registry_number","http://www.commonchemistry.org/ChemicalDetail.aspx?ref=594-27-4","//upload.wikimedia.org/wikipedia/en/thumb/f/fb/Yes_check.svg/7px-Yes_check.svg.png","/wiki/PubChem","http://pubchem.ncbi.nlm.nih.gov/summary/summary.cgi?cid=11661","/wiki/ChemSpider","http://www.chemspider.com/11171","//upload.wikimedia.org/wikipedia/en/thumb/f/fb/Yes_check.svg/7px-Yes_check.svg.png","/wiki/EC_number_(chemistry)","http://esis.jrc.ec.europa.eu/lib/einecs_IS_reponse.php?genre=ECNO&entree=209-833-6","/wiki/UN_number","/wiki/ChEBI","https://www.ebi.ac.uk/chebi/searchId.do?chebiId=30420","//upload.wikimedia.org/wikipedia/en/thumb/f/fb/Yes_check.svg/7px-Yes_check.svg.png","/wiki/RTECS","/wiki/Beilstein_database","/wiki/Gmelin_database","/wiki/Jmol","http://chemapps.stolaf.edu/jmol/jmol.php?model=C%5BSn%5D%28C%29%28C%29C","/wiki/Simplified_molecular-input_line-entry_system","/wiki/International_Chemical_Identifier","//upload.wikimedia.org/wikipedia/en/thumb/f/fb/Yes_check.svg/7px-Yes_check.svg.png","//upload.wikimedia.org/wikipedia/en/thumb/f/fb/Yes_check.svg/7px-Yes_check.svg.png","/wiki/Molecular_formula","/wiki/Molar_mass","/wiki/Density","/wiki/Melting_point","/wiki/Boiling_point","/wiki/Dangerous_Substances_Directive_(67/548/EEC)","/wiki/File:Hazard_TT.svg","//upload.wikimedia.org/wikipedia/commons/thumb/8/86/Hazard_TT.svg/40px-Hazard_TT.svg.png","/wiki/File:Hazard_N.svg","//upload.wikimedia.org/wikipedia/commons/thumb/6/6a/Hazard_N.svg/40px-Hazard_N.svg.png","/wiki/List_of_R-phrases","/wiki/R26/27/28:_Very_toxic_by_inhalation,_in_contact_with_skin_and_if_swallowed","/wiki/R50/53:_Very_toxic_to_aquatic_organisms,_may_cause_long-term_adverse_effects_in_the_aquatic_environment","/wiki/List_of_S-phrases","/wiki/S26:_In_case_of_contact_with_eyes,_rinse_immediately_with_plenty_of_water_and_seek_medical_advice","/wiki/S27:_Take_off_immediately_all_contaminated_clothing","/wiki/S28:_After_contact_with_skin,_wash_immediately_with_plenty_of_..._(to_be_specified_by_the_manufacturer)","/wiki/S45:_In_case_of_accident_or_if_you_feel_unwell_seek_medical_advice_immediately_(show_the_label_where_possible)","/wiki/S60:_This_material_and_its_container_must_be_disposed_of_as_hazardous_waste","/wiki/S61:_Avoid_release_to_the_environment._Refer_to_special_instructions/safety_data_sheet","/wiki/NFPA_704","/wiki/File:NFPA_704.svg","//upload.wikimedia.org/wikipedia/commons/thumb/6/6f/NFPA_704.svg/75px-NFPA_704.svg.png","/wiki/Flash_point","/wiki/Tetrabutyltin","/wiki/Tetraethyltin","/wiki/Neopentane","/wiki/Tetramethylsilane","//upload.wikimedia.org/wikipedia/en/thumb/f/fb/Yes_check.svg/14px-Yes_check.svg.png","//en.wikipedia.org/w/index.php?title=Special:ComparePages&rev1=430001558&page2=Tetramethyltin","/wiki/Wikipedia:WikiProject_Chemicals/Chembox_validation","//upload.wikimedia.org/wikipedia/en/thumb/f/fb/Yes_check.svg/10px-Yes_check.svg.png","//upload.wikimedia.org/wikipedia/commons/thumb/a/a2/X_mark.svg/10px-X_mark.svg.png","/wiki/Standard_state","/wiki/Wikipedia:Chemical_infobox#References","/wiki/Organometallic_compound","/wiki/Organotin_compound","#Synthesis_and_structure","#Applications","#Precursor_to_methyltin_compounds","#Surface_functionalization","#Applications_in_organic_synthesis","#References","/w/index.php?title=Tetramethyltin&action=edit&section=1","#cite_note-Scott-2","#cite_note-Thoonen-3","/wiki/Neopentane","/w/index.php?title=Tetramethyltin&action=edit&section=2","/w/index.php?title=Tetramethyltin&action=edit&section=3","/wiki/Trimethyltin_chloride","#cite_note-Scott-2","/wiki/Polyvinylchloride","#cite_note-Thoonen-3","/w/index.php?title=Tetramethyltin&action=edit&section=4","#cite_note-4","/w/index.php?title=Tetramethyltin&action=edit&section=5","/wiki/Organic_synthesis","/wiki/Palladium-catalyzed_coupling_reactions","#cite_note-5","/w/index.php?title=Tetramethyltin&action=edit&section=6","#cite_ref-1","http://www.chemspider.com/Chemical-Structure.11171.html","#cite_ref-Scott_2-0","#cite_ref-Scott_2-1","/wiki/Digital_object_identifier","http://dx.doi.org/10.1002%2F047084289X.rt070","#cite_ref-Thoonen_3-0","#cite_ref-Thoonen_3-1","/wiki/Journal_of_Organometallic_Chemistry","/wiki/Digital_object_identifier","http://dx.doi.org/10.1016%2Fj.jorganchem.2004.03.027","#cite_ref-4","/wiki/Digital_object_identifier","http://dx.doi.org/10.1016%2FB0-08-045047-4%2F00054-6","#cite_ref-5","/wiki/J._Am._Chem._Soc.","/wiki/Digital_object_identifier","http://dx.doi.org/10.1021%2Fja00357a026","//en.wikipedia.org/w/index.php?title=Special:CentralAutoLogin/start&type=1x1&from=enwiki","http://en.wikipedia.org/w/index.php?title=Tetramethyltin&oldid=541444942","/wiki/Help:Categories","/wiki/Category:Organotin_compounds","/w/index.php?title=Special:UserLogin&returnto=Tetramethyltin&type=signup","/w/index.php?title=Special:UserLogin&returnto=Tetramethyltin","/wiki/Tetramethyltin","/wiki/Talk:Tetramethyltin","#","/wiki/Tetramethyltin","/w/index.php?title=Tetramethyltin&action=edit","/w/index.php?title=Tetramethyltin&action=history","#","/w/index.php","//bits.wikimedia.org/static-1.22wmf11/skins/vector/images/search-ltr.png?303-4","/wiki/Main_Page","/wiki/Main_Page","/wiki/Portal:Contents","/wiki/Portal:Featured_content","/wiki/Portal:Current_events","/wiki/Special:Random","//donate.wikimedia.org/wiki/Special:FundraiserRedirector?utm_source=donate&utm_medium=sidebar&utm_campaign=C13_en.wikipedia.org&uselang=en","/wiki/Help:Contents","/wiki/Wikipedia:About","/wiki/Wikipedia:Community_portal","/wiki/Special:RecentChanges","//en.wikipedia.org/wiki/Wikipedia:Contact_us","/wiki/Special:WhatLinksHere/Tetramethyltin","/wiki/Special:RecentChangesLinked/Tetramethyltin","/wiki/Wikipedia:File_Upload_Wizard","/wiki/Special:SpecialPages","/w/index.php?title=Tetramethyltin&oldid=541444942","/w/index.php?title=Tetramethyltin&action=info","//www.wikidata.org/wiki/Q413135","/w/index.php?title=Special:Cite&page=Tetramethyltin&id=541444942","/w/index.php?title=Special:Book&bookcmd=book_creator&referer=Tetramethyltin","/w/index.php?title=Special:Book&bookcmd=render_article&arttitle=Tetramethyltin&oldid=541444942&writer=rl","/w/index.php?title=Tetramethyltin&printable=yes","//de.wikipedia.org/wiki/Tetramethylzinn","//fa.wikipedia.org/wiki/%D8%AA%D8%AA%D8%B1%D8%A7%D9%85%D8%AA%DB%8C%D9%84%E2%80%8C%D9%82%D9%84%D8%B9","//ja.wikipedia.org/wiki/%E3%83%86%E3%83%88%E3%83%A9%E3%83%A1%E3%83%81%E3%83%AB%E3%82%B9%E3%82%BA","//pt.wikipedia.org/wiki/Tetrametilestanho","#","//www.wikidata.org/wiki/Q413135#sitelinks-wikipedia","//en.wikipedia.org/wiki/Wikipedia:Text_of_Creative_Commons_Attribution-ShareAlike_3.0_Unported_License","//creativecommons.org/licenses/by-sa/3.0/","//wikimediafoundation.org/wiki/Terms_of_Use","//wikimediafoundation.org/wiki/Privacy_policy","//www.wikimediafoundation.org/","//wikimediafoundation.org/wiki/Privacy_policy","/wiki/Wikipedia:About","/wiki/Wikipedia:General_disclaimer","//en.wikipedia.org/wiki/Wikipedia:Contact_us","//en.m.wikipedia.org/wiki/Tetramethyltin","//wikimediafoundation.org/","//bits.wikimedia.org/images/wikimedia-button.png","//www.mediawiki.org/","//bits.wikimedia.org/static-1.22wmf11/skins/common/images/poweredby_mediawiki_88x31.png","//bits.wikimedia.org/en.wikipedia.org/load.php?debug=false&lang=en&modules=site&only=scripts&skin=vector&*"],"instances":[],"pdf":[],"categories":["Organotin compounds"],"headings":["Synthesis and structure","Applications","Applications in organic synthesis","References"],"image":["//upload.wikimedia.org/wikipedia/commons/thumb/d/db/Tetramethyltin.png/121px-Tetramethyltin.png","//upload.wikimedia.org/wikipedia/en/thumb/f/fb/Yes_check.svg/7px-Yes_check.svg.png","//upload.wikimedia.org/wikipedia/en/thumb/f/fb/Yes_check.svg/7px-Yes_check.svg.png","//upload.wikimedia.org/wikipedia/en/thumb/f/fb/Yes_check.svg/7px-Yes_check.svg.png","//upload.wikimedia.org/wikipedia/en/thumb/f/fb/Yes_check.svg/7px-Yes_check.svg.png","//upload.wikimedia.org/wikipedia/en/thumb/f/fb/Yes_check.svg/7px-Yes_check.svg.png","//upload.wikimedia.org/wikipedia/commons/thumb/8/86/Hazard_TT.svg/40px-Hazard_TT.svg.png","//upload.wikimedia.org/wikipedia/commons/thumb/6/6a/Hazard_N.svg/40px-Hazard_N.svg.png","//upload.wikimedia.org/wikipedia/commons/thumb/6/6f/NFPA_704.svg/75px-NFPA_704.svg.png","//upload.wikimedia.org/wikipedia/en/thumb/f/fb/Yes_check.svg/14px-Yes_check.svg.png","//upload.wikimedia.org/wikipedia/en/thumb/f/fb/Yes_check.svg/10px-Yes_check.svg.png","//upload.wikimedia.org/wikipedia/commons/thumb/a/a2/X_mark.svg/10px-X_mark.svg.png","//en.wikipedia.org/w/index.php?title=Special:CentralAutoLogin/start&type=1x1&from=enwiki","//bits.wikimedia.org/static-1.22wmf11/skins/vector/images/search-ltr.png?303-4","//bits.wikimedia.org/images/wikimedia-button.png","//bits.wikimedia.org/static-1.22wmf11/skins/common/images/poweredby_mediawiki_88x31.png"],"tags":[],"members":[],"related":["Tetrabutyltin","Tetraethyltin","Neopentane","Tetramethylsilane","Organometallic_compound","Organotin_compound","Journal_of_Organometallic_Chemistry","Neopentane","Trimethyltin_chloride","Polyvinylchloride","Organic_synthesis","Palladium-catalyzed_coupling_reactions"]}