{"cursor":"3465","size":15,"audio":[],"currentlang":"en","article":"\n{{chembox\n| Verifiedfields = changed Watchedfields = changed verifiedrevid = 458956008\n| ImageFile1 = Thymine_skeletal.svg ImageSize1 = 120px ImageFileL2 = Thymine-3D-\n| balls.png ImageSizeL2 = 120px ImageFileR2 = Thymine-3D-vdW.png ImageSizeR2 =\n| 120px IUPACName = 5-Methylpyrimidine-2,4(1H,3H)-dione OtherNames = 5-\n| methyluracil Section1 = {{Chembox Identifiers CASNo = 65-71-4 CASNo_Ref =\n| ChEMBL_Ref = ChEMBL = 993 UNII_Ref = UNII = QR26YLT7LT PubChem = 1135\n| ChemSpiderID_Ref = ChemSpiderID = 1103 SMILES = Cc1c[nH]c(=O)[nH]c1=O InChI =\n| 1/C5H6N2O2/c1-3-2-6-5(9)7-4(3)8/h2H,1H3,(H2,6,7,8,9) InChIKey = RWQNBRDOKXIBIV-\n| UHFFFAOYAL StdInChI_Ref = StdInChI = 1S/C5H6N2O2/c1-3-2-6-5(9)7-\n| 4(3)8/h2H,1H3,(H2,6,7,8,9) StdInChIKey_Ref = StdInChIKey = RWQNBRDOKXIBIV-UHFFFAOYSA-\n| N MeSHName = Thymine\n  }}\n| Section2 = {{Chembox Properties C = 5 H = 6 N = 2 O = 2 Appearance = Density =\n| 1.23 g cm â3 (calculated) MeltingPtCL = 316 MeltingPtCH = 317\n| BoilingPtC = 335 Boiling_notes = decomposes\n  }}\n| Section3 = {{Chembox Hazards Solubility = MainHazards = FlashPt =\n| Autoignition =\n  }}\n\n}} 'Thymine' ('T', 'Thy') is one of the four nucleobases in the nucleic acid of\nDNA that are represented by the letters GâCâAâT. The others are adenine,\nguanine, and cytosine. Thymine is also known as '5-methyluracil,' a pyrimidine\nnucleobase. As the name suggests, thymine may be derived by methylation of\nuracil at the 5th carbon. In RNA, thymine is replaced with uracil in most cases.\nIn DNA, thymine (T) binds to adenine (A) via two hydrogen bonds, thus\nstabilizing the nucleic acid structures.\n\nThymine combined with deoxyribose creates the nucleoside deoxythymidine, which\nis synonymous with the term thymidine. Thymidine can be phosphorylated with one,\ntwo, or three phosphoric acid groups, creating, respectively, TMP, TDP, or TTP\n(thymidine mono-, di-, or triphosphate).\n\nOne of the common mutations of DNA involves two adjacent thymines or cytosine,\nwhich, in presence of ultraviolet light, may form thymine dimers, causing\n\"kinks\" in the DNA molecule that inhibit normal function.\n\nThymine could also be a target for actions of 5-fluorouracil (5-FU) in cancer\ntreatment. 5-FU can be a metabolic analog of thymine (in DNA synthesis) or\nuracil (in RNA synthesis). Substitution of this analog inhibits DNA synthesis in\nactively dividing cells.\n\nThymine bases are frequently oxidized to hydantoins over time after the death of\nan organism. Hofreiter M., Serre D., Poinar H.N., Kuch M., and Paabo S.\nNature Reviews Genetics (2001) '2':353. \n","linknr":286,"url":"thymine","recorded":1363377241,"links":["/w/index.php?title=Thymine&action=edit","/w/index.php?title=Thymine&action=edit","//en.wikipedia.org/apple-touch-icon.png","//bits.wikimedia.org/favicon/wikipedia.ico","/w/opensearch_desc.php","//en.wikipedia.org/w/api.php?action=rsd","//creativecommons.org/licenses/by-sa/3.0/","/w/index.php?title=Special:RecentChanges&feed=atom","//bits.wikimedia.org/en.wikipedia.org/load.php?debug=false&lang=en&modules=ext.gadget.DRN-wizard%2CReferenceTooltips%2Ccharinsert%2Cteahouse%7Cext.wikihiero%7Cmediawiki.legacy.commonPrint%2Cshared%7Cmw.PopUpMediaTransform%7Cskins.vector&only=styles&skin=vector&*","//bits.wikimedia.org/en.wikipedia.org/load.php?debug=false&lang=en&modules=site&only=styles&skin=vector&*","//bits.wikimedia.org/en.wikipedia.org/load.php?debug=false&lang=en&modules=startup&only=scripts&skin=vector&*","//bits.wikimedia.org/geoiplookup","//meta.wikimedia.org","#mw-head","#p-search","/wiki/Thiamine","/wiki/File:Thymine_skeletal.svg","//upload.wikimedia.org/wikipedia/commons/thumb/a/ab/Thymine_skeletal.svg/120px-Thymine_skeletal.svg.png","/wiki/File:Thymine-3D-balls.png","//upload.wikimedia.org/wikipedia/commons/thumb/8/88/Thymine-3D-balls.png/120px-Thymine-3D-balls.png","/wiki/File:Thymine-3D-vdW.png","//upload.wikimedia.org/wikipedia/commons/thumb/0/07/Thymine-3D-vdW.png/120px-Thymine-3D-vdW.png","/wiki/International_Union_of_Pure_and_Applied_Chemistry_nomenclature","/wiki/CAS_registry_number","http://www.commonchemistry.org/ChemicalDetail.aspx?ref=65-71-4","//upload.wikimedia.org/wikipedia/en/thumb/f/fb/Yes_check.svg/7px-Yes_check.svg.png","/wiki/PubChem","http://pubchem.ncbi.nlm.nih.gov/summary/summary.cgi?cid=1135","/wiki/ChemSpider","http://www.chemspider.com/1103","//upload.wikimedia.org/wikipedia/commons/thumb/a/a2/X_mark.svg/7px-X_mark.svg.png","/wiki/Unique_Ingredient_Identifier","http://fdasis.nlm.nih.gov/srs/srsdirect.jsp?regno=QR26YLT7LT","//upload.wikimedia.org/wikipedia/en/thumb/f/fb/Yes_check.svg/7px-Yes_check.svg.png","/wiki/Medical_Subject_Headings","http://www.nlm.nih.gov/cgi/mesh/2007/MB_cgi?mode=&term=Thymine","/wiki/ChEMBL","https://www.ebi.ac.uk/chembldb/index.php/compound/inspect/CHEMBL993","//upload.wikimedia.org/wikipedia/commons/thumb/a/a2/X_mark.svg/7px-X_mark.svg.png","/wiki/Jmol","http://chemapps.stolaf.edu/jmol/jmol.php?model=Cc1c%5BnH%5Dc%28%3DO%29%5BnH%5Dc1%3DO","/wiki/Simplified_molecular-input_line-entry_system","/wiki/International_Chemical_Identifier","//upload.wikimedia.org/wikipedia/commons/thumb/a/a2/X_mark.svg/7px-X_mark.svg.png","//upload.wikimedia.org/wikipedia/commons/thumb/a/a2/X_mark.svg/7px-X_mark.svg.png","/wiki/Molecular_formula","/wiki/Molar_mass","/wiki/Density","/wiki/Melting_point","/wiki/Boiling_point","//upload.wikimedia.org/wikipedia/commons/thumb/a/a2/X_mark.svg/14px-X_mark.svg.png","//en.wikipedia.org/w/index.php?title=Special:ComparePages&rev1=458956008&page2=Thymine","/wiki/Wikipedia:WikiProject_Chemicals/Chembox_validation","//upload.wikimedia.org/wikipedia/en/thumb/f/fb/Yes_check.svg/10px-Yes_check.svg.png","//upload.wikimedia.org/wikipedia/commons/thumb/a/a2/X_mark.svg/10px-X_mark.svg.png","/wiki/Standard_state","/wiki/Wikipedia:Chemical_infobox#References","/wiki/Help:IPA_for_English","/wiki/Help:IPA_for_English#Key","/wiki/Help:IPA_for_English#Key","/wiki/Help:IPA_for_English#Key","/wiki/Help:IPA_for_English#Key","/wiki/Help:IPA_for_English#Key","/wiki/Help:IPA_for_English#Key","/wiki/Help:IPA_for_English","/wiki/Nucleobase","/wiki/Nucleic_acid","/wiki/DNA","/wiki/Adenine","/wiki/Guanine","/wiki/Cytosine","/wiki/Pyrimidine","/wiki/RNA","/wiki/Uracil","/wiki/Adenine","/wiki/Deoxyribose","/wiki/Nucleoside","/wiki/Deoxythymidine","/wiki/Thymidine","/wiki/Ultraviolet","/wiki/Thymine_dimers","/wiki/Fluorouracil","/wiki/Cancer","/wiki/DNA_replication","/wiki/Hydantoins","#cite_note-1","/w/index.php?title=Thymine&action=edit&section=1","/wiki/Deoxyribose","/wiki/Deoxythymidine","/wiki/Nucleobase","/wiki/Pyrimidine","/wiki/Uracil","/w/index.php?title=Thymine&action=edit&section=2","#cite_ref-1","/w/index.php?title=Thymine&action=edit&section=3","http://www.infoplease.com/ce6/sci/A0848663.html","http://scienceaid.co.uk/biology/genetics/dna.html","/wiki/Template:Nucleobases,_nucleosides,_and_nucleotides","/wiki/Template_talk:Nucleobases,_nucleosides,_and_nucleotides","//en.wikipedia.org/w/index.php?title=Template:Nucleobases,_nucleosides,_and_nucleotides&action=edit","/wiki/Nucleic_acid","/wiki/Nucleobase","/wiki/Purine","/wiki/Adenine","/wiki/Guanine","/wiki/Purine_analogue","/wiki/Pyrimidine","/wiki/Uracil","/wiki/Cytosine","/wiki/Pyrimidine_analogue","/wiki/Nucleoside","/wiki/Ribonucleoside","/wiki/Adenosine","/wiki/Guanosine","/wiki/5-Methyluridine","/wiki/Uridine","/wiki/Cytidine","/wiki/Deoxyribonucleoside","/wiki/Deoxyadenosine","/wiki/Deoxyguanosine","/wiki/Thymidine","/wiki/Deoxyuridine","/wiki/Deoxycytidine","/wiki/Nucleotide","/wiki/Ribonucleotide","/wiki/Adenosine_monophosphate","/wiki/Guanosine_monophosphate","/w/index.php?title=5-Methyluridine_monophosphate&action=edit&redlink=1","/wiki/Uridine_monophosphate","/wiki/Cytidine_monophosphate","/wiki/Deoxyribonucleotide","/wiki/Deoxyadenosine_monophosphate","/wiki/Deoxyguanosine_monophosphate","/wiki/Thymidine_monophosphate","/wiki/Deoxyuridine_monophosphate","/wiki/Deoxycytidine_monophosphate","/wiki/Cyclic_nucleotide","/wiki/Cyclic_adenosine_monophosphate","/wiki/Cyclic_guanosine_monophosphate","/wiki/Cyclic_di-GMP","/wiki/Cyclic_ADP-ribose","/wiki/Nucleoside_diphosphate","/wiki/Adenosine_diphosphate","/wiki/Guanosine_diphosphate","/w/index.php?title=5-Methyluridine_diphosphate&action=edit&redlink=1","/wiki/Uridine_diphosphate","/wiki/Cytidine_diphosphate","/wiki/Deoxyadenosine_diphosphate","/wiki/Deoxyguanosine_diphosphate","/wiki/Thymidine_diphosphate","/w/index.php?title=Deoxyuridine_diphosphate&action=edit&redlink=1","/wiki/Deoxycytidine_diphosphate","/wiki/Nucleoside_triphosphate","/wiki/Adenosine_triphosphate","/wiki/Guanosine_triphosphate","/wiki/5-Methyluridine_triphosphate","/wiki/Uridine_triphosphate","/wiki/Cytidine_triphosphate","/wiki/Deoxyadenosine_triphosphate","/wiki/Deoxyguanosine_triphosphate","/wiki/Thymidine_triphosphate","/w/index.php?title=Deoxyuridine_triphosphate&action=edit&redlink=1","/wiki/Deoxycytidine_triphosphate","/wiki/Biochemistry","/wiki/Template:Metabolism","/wiki/Template:Carbohydrates","/wiki/Template:Alcohols","/wiki/Template:Glycoproteins","/wiki/Template:Glycosides","/wiki/Template:Lipids","/wiki/Template:Eicosanoids","/wiki/Template:Fatty_acids","/wiki/Template:Fatty-acid_metabolism_intermediates","/wiki/Template:Phospholipids","/wiki/Template:Sphingolipids","/wiki/Template:Cholesterol_and_steroid_intermediates","/wiki/Template:Nucleic_acids","/wiki/Template:Nucleobases,_nucleosides,_and_nucleotides","/wiki/Template:Nucleotide_metabolism_intermediates","/wiki/Template:Protein_topics","/wiki/Template:AminoAcids","/wiki/Template:Amino_acid_metabolism_intermediates","/wiki/Template:Tetrapyrroles","/wiki/Template:Heme_metabolism_intermediates","http://en.wikipedia.org/w/index.php?title=Thymine&oldid=539557493","/wiki/Help:Categories","/wiki/Category:Pyrimidinediones","/wiki/Category:Articles_with_changed_ChemSpider_identifier","/wiki/Category:Articles_with_changed_EBI_identifier","/wiki/Category:Chemboxes_which_contain_changes_to_verified_fields","/wiki/Category:Chemboxes_which_contain_changes_to_watched_fields","/w/index.php?title=Special:UserLogin&returnto=Thymine&type=signup","/w/index.php?title=Special:UserLogin&returnto=Thymine","/wiki/Thymine","/wiki/Talk:Thymine","#","/wiki/Thymine","/w/index.php?title=Thymine&action=edit","/w/index.php?title=Thymine&action=history","#","/w/index.php","//bits.wikimedia.org/static-1.21wmf10/skins/vector/images/search-ltr.png?303-4","/wiki/Main_Page","/wiki/Main_Page","/wiki/Portal:Contents","/wiki/Portal:Featured_content","/wiki/Portal:Current_events","/wiki/Special:Random","//donate.wikimedia.org/wiki/Special:FundraiserRedirector?utm_source=donate&utm_medium=sidebar&utm_campaign=C13_en.wikipedia.org&uselang=en","/wiki/Help:Contents","/wiki/Wikipedia:About","/wiki/Wikipedia:Community_portal","/wiki/Special:RecentChanges","/wiki/Wikipedia:Contact_us","/wiki/Special:WhatLinksHere/Thymine","/wiki/Special:RecentChangesLinked/Thymine","/wiki/Wikipedia:File_Upload_Wizard","/wiki/Special:SpecialPages","/w/index.php?title=Thymine&oldid=539557493","/w/index.php?title=Thymine&action=info","/w/index.php?title=Special:Cite&page=Thymine&id=539557493","/w/index.php?title=Special:Book&bookcmd=book_creator&referer=Thymine","/w/index.php?title=Special:Book&bookcmd=render_article&arttitle=Thymine&oldid=539557493&writer=rl","/w/index.php?title=Thymine&printable=yes","//ar.wikipedia.org/wiki/%D8%AB%D9%8A%D9%85%D9%8A%D9%86","//zh-min-nan.wikipedia.org/wiki/Thymin","//bg.wikipedia.org/wiki/%D0%A2%D0%B8%D0%BC%D0%B8%D0%BD","//br.wikipedia.org/wiki/Timin","//ca.wikipedia.org/wiki/Timina","//cs.wikipedia.org/wiki/Thymin","//da.wikipedia.org/wiki/Thymin","//de.wikipedia.org/wiki/Thymin","//el.wikipedia.org/wiki/%CE%98%CF%85%CE%BC%CE%AF%CE%BD%CE%B7","//es.wikipedia.org/wiki/Timina","//eo.wikipedia.org/wiki/Timino","//eu.wikipedia.org/wiki/Timina","//fa.wikipedia.org/wiki/%D8%AA%DB%8C%D9%85%DB%8C%D9%86","//fr.wikipedia.org/wiki/Thymine","//gl.wikipedia.org/wiki/Timina","//ko.wikipedia.org/wiki/%ED%8B%B0%EB%AF%BC","//hi.wikipedia.org/wiki/%E0%A4%A5%E0%A4%BE%E0%A4%AF%E0%A4%AE%E0%A4%BF%E0%A4%A8","//hr.wikipedia.org/wiki/Timin","//id.wikipedia.org/wiki/Timina","//it.wikipedia.org/wiki/Timina","//he.wikipedia.org/wiki/%D7%AA%D7%99%D7%9E%D7%99%D7%9F","//jv.wikipedia.org/wiki/Timin","//kk.wikipedia.org/wiki/%D0%A2%D0%B8%D0%BC%D0%B8%D0%BD","//lt.wikipedia.org/wiki/Timinas","//hu.wikipedia.org/wiki/Timin","//nl.wikipedia.org/wiki/Thymine","//ja.wikipedia.org/wiki/%E3%83%81%E3%83%9F%E3%83%B3","//no.wikipedia.org/wiki/Tymin","//oc.wikipedia.org/wiki/Timina","//pl.wikipedia.org/wiki/Tymina","//pt.wikipedia.org/wiki/Timina","//ro.wikipedia.org/wiki/Timin%C4%83","//ru.wikipedia.org/wiki/%D0%A2%D0%B8%D0%BC%D0%B8%D0%BD","//simple.wikipedia.org/wiki/Thymine","//sk.wikipedia.org/wiki/Tym%C3%ADn","//sl.wikipedia.org/wiki/Timin","//sr.wikipedia.org/wiki/%D0%A2%D0%B8%D0%BC%D0%B8%D0%BD","//sh.wikipedia.org/wiki/Timin","//fi.wikipedia.org/wiki/Tymiini","//sv.wikipedia.org/wiki/Tymin","//th.wikipedia.org/wiki/%E0%B9%84%E0%B8%97%E0%B8%A1%E0%B8%B5%E0%B8%99","//tr.wikipedia.org/wiki/Timin","//uk.wikipedia.org/wiki/%D0%A2%D0%B8%D0%BC%D1%96%D0%BD","//ur.wikipedia.org/wiki/Thymine","//vi.wikipedia.org/wiki/Thymine","//zh.wikipedia.org/wiki/%E8%83%B8%E8%85%BA%E5%98%A7%E5%95%B6","//www.wikidata.org/wiki/Special:ItemByTitle/enwiki/Thymine","//en.wikipedia.org/wiki/Wikipedia:Text_of_Creative_Commons_Attribution-ShareAlike_3.0_Unported_License","//creativecommons.org/licenses/by-sa/3.0/","//wikimediafoundation.org/wiki/Terms_of_Use","//www.wikimediafoundation.org/","//en.wikipedia.org/wiki/Wikipedia:Contact_us","//wikimediafoundation.org/wiki/Privacy_policy","/wiki/Wikipedia:About","/wiki/Wikipedia:General_disclaimer","http://en.m.wikipedia.org/wiki/Thymine","//wikimediafoundation.org/","//bits.wikimedia.org/images/wikimedia-button.png","//www.mediawiki.org/","//bits.wikimedia.org/static-1.21wmf10/skins/common/images/poweredby_mediawiki_88x31.png","//bits.wikimedia.org/en.wikipedia.org/load.php?debug=false&lang=en&modules=skins.vector&only=scripts&skin=vector&*","/w/index.php?title=MediaWiki:Gadget-ReferenceTooltips.js&action=raw&ctype=text/javascript&508635914","//bits.wikimedia.org/en.wikipedia.org/load.php?debug=false&lang=en&modules=site&only=scripts&skin=vector&*"],"instances":[],"pdf":[],"categories":["Pyrimidinediones"],"headings":["See also","References","External links"],"image":["//upload.wikimedia.org/wikipedia/commons/thumb/a/ab/Thymine_skeletal.svg/120px-Thymine_skeletal.svg.png","//upload.wikimedia.org/wikipedia/commons/thumb/8/88/Thymine-3D-balls.png/120px-Thymine-3D-balls.png","//upload.wikimedia.org/wikipedia/commons/thumb/0/07/Thymine-3D-vdW.png/120px-Thymine-3D-vdW.png","//upload.wikimedia.org/wikipedia/en/thumb/f/fb/Yes_check.svg/7px-Yes_check.svg.png","//upload.wikimedia.org/wikipedia/commons/thumb/a/a2/X_mark.svg/7px-X_mark.svg.png","//upload.wikimedia.org/wikipedia/en/thumb/f/fb/Yes_check.svg/7px-Yes_check.svg.png","//upload.wikimedia.org/wikipedia/commons/thumb/a/a2/X_mark.svg/7px-X_mark.svg.png","//upload.wikimedia.org/wikipedia/commons/thumb/a/a2/X_mark.svg/7px-X_mark.svg.png","//upload.wikimedia.org/wikipedia/commons/thumb/a/a2/X_mark.svg/7px-X_mark.svg.png","//upload.wikimedia.org/wikipedia/commons/thumb/a/a2/X_mark.svg/14px-X_mark.svg.png","//upload.wikimedia.org/wikipedia/en/thumb/f/fb/Yes_check.svg/10px-Yes_check.svg.png","//upload.wikimedia.org/wikipedia/commons/thumb/a/a2/X_mark.svg/10px-X_mark.svg.png","//bits.wikimedia.org/static-1.21wmf10/skins/vector/images/search-ltr.png?303-4","//bits.wikimedia.org/images/wikimedia-button.png","//bits.wikimedia.org/static-1.21wmf10/skins/common/images/poweredby_mediawiki_88x31.png"],"tags":[],"members":[],"related":["Nucleobase","Nucleic_acid","DNA","Adenine","Guanine","Cytosine","Pyrimidine","RNA","Uracil","Adenine","Deoxyribose","Nucleoside","Deoxythymidine","Thymidine","Ultraviolet","Thymine_dimers","Fluorouracil","Cancer","DNA_replication","Hydantoins","Deoxyribose","Deoxythymidine","Nucleobase","Pyrimidine","Uracil"]}