{"cursor":"5390","size":15,"audio":[],"currentlang":"en","article":"{{chembox\n| Verifiedfields = changed verifiedrevid = 470618015 ImageFile1 = tropinone.png\n| ImageFile2 = Tropinone-3D-sticks.png IUPACName = 8-Methyl-8-azabicyclo[3.2.1]octan-3-\n| one OtherNames = 3-Tropinone Section1 = {{Chembox Identifiers Abbreviations =\n| ChemSpiderID_Ref = ChemSpiderID = 393722 InChI = 1S/C8H13NO/c1-9-6-2-3-7(9)5-8(10)4-6/h6-7H,2-5H2,1H3/t6-\n| ,7+ InChIKey = QQXLDOJGLXJCSE-KNVOCYPGBG StdInChI_Ref = StdInChI = 1S/C8H13NO/c1-9-6-2-3-7(9)5-8(10)4-6/h6-7H,2-5H2,1H3/t6-\n| ,7+ StdInChIKey_Ref = StdInChIKey = QQXLDOJGLXJCSE-KNVOCYPGSA-N InChIKey1 =\n| QQXLDOJGLXJCSE-KNVOCYPGSA-N CASNo_Ref = CASNo = 532-24-1 EINECS = PubChem =\n| 446337 DrugBank_Ref = DrugBank = DB01874 SMILES = CN1[C@@H]2CC[C@H]1CC(=O)C2\n| InChI = RTECS = MeSHName = ChEBI_Ref = ChEBI = 16656 KEGG_Ref = KEGG =\n| ATCCode_prefix = ATCCode_suffix = ATC_Supplemental =}} Section2 = {{Chembox\n| Properties Formula = C 8H 13 NO MolarMass = 139.195 g/mol\n| Appearance = Brown solid Density = MeltingPtC = 42.5 Melting_notes = BoilingPt\n| = (decomposes) Boiling_notes = Solubility = SolubleOther = Solvent = pKa = pKb\n| = }} Section7 = {{Chembox Hazards EUClass = EUIndex = MainHazards = NFPA-H = 2\n| NFPA-F = 1 NFPA-R = 0 NFPA-O = RPhrases = SPhrases = RSPhrases = FlashPt =\n| Autoignition = ExploLimits = PEL = }}\n}}\n\n'Tropinone' is an alkaloid, famously synthesised in 1917 by Robert Robinson as a\nsynthetic precursor to atropine, a scarce commodity during World War\nI. Tropinone and the alkaloids cocaine and atropine all\nshare the same tropane core structure.\n","linknr":229,"url":"tropinone","recorded":1364050611,"links":["/w/index.php?title=Tropinone&action=edit","/w/index.php?title=Tropinone&action=edit","//en.wikipedia.org/apple-touch-icon.png","//bits.wikimedia.org/favicon/wikipedia.ico","/w/opensearch_desc.php","//en.wikipedia.org/w/api.php?action=rsd","//creativecommons.org/licenses/by-sa/3.0/","/w/index.php?title=Special:RecentChanges&feed=atom","//bits.wikimedia.org/en.wikipedia.org/load.php?debug=false&lang=en&modules=ext.gadget.DRN-wizard%2CReferenceTooltips%2Ccharinsert%2Cteahouse%7Cext.wikihiero%7Cmediawiki.legacy.commonPrint%2Cshared%7Cmw.PopUpMediaTransform%7Cskins.vector&only=styles&skin=vector&*","//bits.wikimedia.org/en.wikipedia.org/load.php?debug=false&lang=en&modules=site&only=styles&skin=vector&*","//bits.wikimedia.org/en.wikipedia.org/load.php?debug=false&lang=en&modules=startup&only=scripts&skin=vector&*","//bits.wikimedia.org/geoiplookup","//meta.wikimedia.org","#mw-head","#p-search","/wiki/File:Tropinone.png","//upload.wikimedia.org/wikipedia/commons/thumb/7/76/Tropinone.png/200px-Tropinone.png","/wiki/File:Tropinone-3D-sticks.png","//upload.wikimedia.org/wikipedia/commons/thumb/b/b8/Tropinone-3D-sticks.png/200px-Tropinone-3D-sticks.png","/wiki/International_Union_of_Pure_and_Applied_Chemistry_nomenclature","/wiki/CAS_registry_number","http://www.commonchemistry.org/ChemicalDetail.aspx?ref=532-24-1","//upload.wikimedia.org/wikipedia/commons/thumb/a/a2/X_mark.svg/7px-X_mark.svg.png","/wiki/PubChem","http://pubchem.ncbi.nlm.nih.gov/summary/summary.cgi?cid=446337","/wiki/ChemSpider","http://www.chemspider.com/393722","//upload.wikimedia.org/wikipedia/en/thumb/f/fb/Yes_check.svg/7px-Yes_check.svg.png","/wiki/DrugBank","http://www.drugbank.ca/drugs/DB01874","/wiki/ChEBI","https://www.ebi.ac.uk/chebi/searchId.do?chebiId=16656","//upload.wikimedia.org/wikipedia/en/thumb/f/fb/Yes_check.svg/7px-Yes_check.svg.png","/wiki/Jmol","http://chemapps.stolaf.edu/jmol/jmol.php?model=CN1%5BC%40%40H%5D2CC%5BC%40H%5D1CC%28%3DO%29C2","/wiki/Simplified_molecular-input_line-entry_system","/wiki/International_Chemical_Identifier","//upload.wikimedia.org/wikipedia/en/thumb/f/fb/Yes_check.svg/7px-Yes_check.svg.png","//upload.wikimedia.org/wikipedia/en/thumb/f/fb/Yes_check.svg/7px-Yes_check.svg.png","/wiki/Chemical_formula","/wiki/Molar_mass","/wiki/Melting_point","/wiki/Boiling_point","/wiki/NFPA_704","/wiki/File:NFPA_704.svg","//upload.wikimedia.org/wikipedia/commons/thumb/6/6f/NFPA_704.svg/75px-NFPA_704.svg.png","//upload.wikimedia.org/wikipedia/commons/thumb/a/a2/X_mark.svg/14px-X_mark.svg.png","//en.wikipedia.org/w/index.php?title=Special:ComparePages&rev1=470618015&page2=Tropinone","/wiki/Wikipedia:WikiProject_Chemicals/Chembox_validation","//upload.wikimedia.org/wikipedia/en/thumb/f/fb/Yes_check.svg/10px-Yes_check.svg.png","//upload.wikimedia.org/wikipedia/commons/thumb/a/a2/X_mark.svg/10px-X_mark.svg.png","/wiki/Standard_state","/wiki/Wikipedia:Chemical_infobox#References","/wiki/Alkaloid","/wiki/Robert_Robinson_(organic_chemist)","/wiki/Organic_chemistry","/wiki/Atropine","/wiki/World_War_I","#cite_note-1","#cite_note-2","/wiki/Cocaine","/wiki/Tropane","#Synthesis","#Reaction_mechanism","#References","#External_links","/w/index.php?title=Tropinone&action=edit&section=1","/wiki/Richard_Willst%C3%A4tter","/wiki/Cycloheptanone","/wiki/Yield_(chemistry)","#cite_note-smit-3","#cite_note-4","/wiki/File:Willstatter_tropinone_synthesis.png","//upload.wikimedia.org/wikipedia/commons/thumb/0/0a/Willstatter_tropinone_synthesis.png/500px-Willstatter_tropinone_synthesis.png","#cite_note-5","/wiki/Total_synthesis","#cite_note-6","/wiki/Bicyclic_molecule","/wiki/Reactant","/wiki/Succinaldehyde","/wiki/Methylamine","/wiki/Acetonedicarboxylic_acid","/wiki/Acetone","/wiki/Biomimetic","/wiki/Biosynthesis","/wiki/Tandem_reaction","/wiki/One-pot_synthesis","#cite_note-smit-3","/wiki/File:Robinson_tropinone_synthesis.png","//upload.wikimedia.org/wikipedia/commons/thumb/a/a5/Robinson_tropinone_synthesis.png/500px-Robinson_tropinone_synthesis.png","/wiki/Mannich_reaction","#cite_note-7","#cite_note-8","/wiki/Synthetic_equivalent","/wiki/Activating_group","/wiki/Buffer_solution","/wiki/Physiological","/wiki/PH","/w/index.php?title=Tropinone&action=edit&section=2","/wiki/Nucleophilic_addition","/wiki/Methylamine","/wiki/Succinaldehyde","/wiki/Imine","/wiki/Intermolecular","/wiki/Mannich_reaction","/wiki/Enolate","/wiki/Intramolecular","/wiki/File:TropinoneSynthesisMechanism.svg","//upload.wikimedia.org/wikipedia/commons/thumb/f/f4/TropinoneSynthesisMechanism.svg/673px-TropinoneSynthesisMechanism.svg.png","#cite_note-9","/wiki/Ecgonidine","/w/index.php?title=Tropinone&action=edit&section=3","#cite_ref-1","/wiki/Digital_object_identifier","http://dx.doi.org/10.1039%2FCT9171100762","//en.wikipedia.org/w/index.php?title=Template:Cite_doi/10.1039.2FCT9171100762&action=edit&editintro=Template:Cite_doi/editintro2","#cite_ref-2","/wiki/Digital_object_identifier","http://dx.doi.org/10.1002%2F%28SICI%291521-3773%2820000103%2939%3A1%3C44%3A%3AAID-ANIE44%3E3.0.CO%3B2-L","/wiki/PubMed_Identifier","//www.ncbi.nlm.nih.gov/pubmed/10649349","http://en.wikipedia.org/w/index.php?title=Template:Cite_pmid/10649349&action=edit&editintro=Template:Cite_pmid/editintro2","#cite_ref-smit_3-0","#cite_ref-smit_3-1","/wiki/Digital_object_identifier","http://dx.doi.org/10.1039%2F9781847551573","/wiki/International_Standard_Book_Number","/wiki/Special:BookSources/978-0-85404-544-0","//en.wikipedia.org/w/index.php?title=Template:Cite_doi/10.1039.2F9781847551573&action=edit&editintro=Template:Cite_doi/editintro2","#cite_ref-4","/wiki/Digital_object_identifier","http://dx.doi.org/10.1039%2Fb001713m","/wiki/PubMed_Identifier","//www.ncbi.nlm.nih.gov/pubmed/11699882","//en.wikipedia.org/w/index.php?title=Template:Cite_doi/10.1039.2Fb001713m&action=edit&editintro=Template:Cite_doi/editintro2","#cite_ref-5","/wiki/International_Standard_Book_Number","/wiki/Special:BookSources/978-0-12-372532-5","#cite_ref-6","/wiki/Robert_Robinson_(organic_chemist)","/wiki/Digital_object_identifier","http://dx.doi.org/10.1098%2Frsnr.1993.0034","/wiki/JSTOR","http://www.jstor.org/stable/531792","//en.wikipedia.org/w/index.php?title=Template:Cite_doi/10.1098.2Frsnr.1993.0034&action=edit&editintro=Template:Cite_doi/editintro2","#cite_ref-7","/wiki/Journal_of_Medicinal_Chemistry","/wiki/Digital_object_identifier","http://dx.doi.org/10.1021%2Fjm990516x","/wiki/PubMed_Identifier","//www.ncbi.nlm.nih.gov/pubmed/10669562","http://en.wikipedia.org/w/index.php?title=Template:Cite_pmid/10669562&action=edit&editintro=Template:Cite_pmid/editintro2","#cite_ref-8","/wiki/Digital_object_identifier","http://dx.doi.org/10.1016%2FS0968-0896%2801%2900090-6","/wiki/PubMed_Identifier","//www.ncbi.nlm.nih.gov/pubmed/11425577","http://en.wikipedia.org/w/index.php?title=Template:Cite_pmid/11425577&action=edit&editintro=Template:Cite_pmid/editintro2","#cite_ref-9","/wiki/Digital_object_identifier","http://dx.doi.org/10.1021%2Fjo01362a022","//en.wikipedia.org/w/index.php?title=Template:Cite_doi/10.1021.2Fjo01362a022&action=edit&editintro=Template:Cite_doi/editintro2","/w/index.php?title=Tropinone&action=edit&section=4","https://fscimage.fishersci.com/msds/42998.htm","http://tropane.lab-q.net/synthesis/syn_tropine","http://en.wikipedia.org/w/index.php?title=Tropinone&oldid=540912515","/wiki/Help:Categories","/wiki/Category:Tropanes","/wiki/Category:Alkaloids","/wiki/Category:Ketones","/wiki/Category:Total_synthesis","/wiki/Category:Articles_with_changed_CASNo","/wiki/Category:Chemboxes_which_contain_changes_to_verified_fields","/w/index.php?title=Special:UserLogin&returnto=Tropinone&type=signup","/w/index.php?title=Special:UserLogin&returnto=Tropinone","/wiki/Tropinone","/wiki/Talk:Tropinone","#","/wiki/Tropinone","/w/index.php?title=Tropinone&action=edit","/w/index.php?title=Tropinone&action=history","#","/w/index.php","//bits.wikimedia.org/static-1.21wmf11/skins/vector/images/search-ltr.png?303-4","/wiki/Main_Page","/wiki/Main_Page","/wiki/Portal:Contents","/wiki/Portal:Featured_content","/wiki/Portal:Current_events","/wiki/Special:Random","//donate.wikimedia.org/wiki/Special:FundraiserRedirector?utm_source=donate&utm_medium=sidebar&utm_campaign=C13_en.wikipedia.org&uselang=en","/wiki/Help:Contents","/wiki/Wikipedia:About","/wiki/Wikipedia:Community_portal","/wiki/Special:RecentChanges","/wiki/Wikipedia:Contact_us","/wiki/Special:WhatLinksHere/Tropinone","/wiki/Special:RecentChangesLinked/Tropinone","/wiki/Wikipedia:File_Upload_Wizard","/wiki/Special:SpecialPages","/w/index.php?title=Tropinone&oldid=540912515","/w/index.php?title=Tropinone&action=info","/w/index.php?title=Special:Cite&page=Tropinone&id=540912515","/w/index.php?title=Special:Book&bookcmd=book_creator&referer=Tropinone","/w/index.php?title=Special:Book&bookcmd=render_article&arttitle=Tropinone&oldid=540912515&writer=rl","/w/index.php?title=Tropinone&printable=yes","//de.wikipedia.org/wiki/Tropinon","//fa.wikipedia.org/wiki/%D8%AA%D8%B1%D9%88%D9%BE%DB%8C%D9%86%D9%88%D9%86","//fr.wikipedia.org/wiki/Tropinone","//pl.wikipedia.org/wiki/Tropinon","//sr.wikipedia.org/wiki/Tropinon","//fi.wikipedia.org/wiki/Tropinoni","//zh.wikipedia.org/wiki/%E6%89%98%E5%93%81%E9%85%AE","//www.wikidata.org/wiki/Special:ItemByTitle/enwiki/Tropinone","//en.wikipedia.org/wiki/Wikipedia:Text_of_Creative_Commons_Attribution-ShareAlike_3.0_Unported_License","//creativecommons.org/licenses/by-sa/3.0/","//wikimediafoundation.org/wiki/Terms_of_Use","//www.wikimediafoundation.org/","//en.wikipedia.org/wiki/Wikipedia:Contact_us","//wikimediafoundation.org/wiki/Privacy_policy","/wiki/Wikipedia:About","/wiki/Wikipedia:General_disclaimer","http://en.m.wikipedia.org/wiki/Tropinone","//wikimediafoundation.org/","//bits.wikimedia.org/images/wikimedia-button.png","//www.mediawiki.org/","//bits.wikimedia.org/static-1.21wmf11/skins/common/images/poweredby_mediawiki_88x31.png","//bits.wikimedia.org/en.wikipedia.org/load.php?debug=false&lang=en&modules=skins.vector&only=scripts&skin=vector&*","/w/index.php?title=MediaWiki:Gadget-ReferenceTooltips.js&action=raw&ctype=text/javascript&508635914","//bits.wikimedia.org/en.wikipedia.org/load.php?debug=false&lang=en&modules=site&only=scripts&skin=vector&*"],"instances":["chemistry","organic_chemist"],"pdf":[],"categories":["Tropanes","Alkaloids","Ketones","Total synthesis"],"headings":["Synthesis","Reaction mechanism","References","External links"],"image":["//upload.wikimedia.org/wikipedia/commons/thumb/7/76/Tropinone.png/200px-Tropinone.png","//upload.wikimedia.org/wikipedia/commons/thumb/b/b8/Tropinone-3D-sticks.png/200px-Tropinone-3D-sticks.png","//upload.wikimedia.org/wikipedia/commons/thumb/a/a2/X_mark.svg/7px-X_mark.svg.png","//upload.wikimedia.org/wikipedia/en/thumb/f/fb/Yes_check.svg/7px-Yes_check.svg.png","//upload.wikimedia.org/wikipedia/en/thumb/f/fb/Yes_check.svg/7px-Yes_check.svg.png","//upload.wikimedia.org/wikipedia/en/thumb/f/fb/Yes_check.svg/7px-Yes_check.svg.png","//upload.wikimedia.org/wikipedia/en/thumb/f/fb/Yes_check.svg/7px-Yes_check.svg.png","//upload.wikimedia.org/wikipedia/commons/thumb/6/6f/NFPA_704.svg/75px-NFPA_704.svg.png","//upload.wikimedia.org/wikipedia/commons/thumb/a/a2/X_mark.svg/14px-X_mark.svg.png","//upload.wikimedia.org/wikipedia/en/thumb/f/fb/Yes_check.svg/10px-Yes_check.svg.png","//upload.wikimedia.org/wikipedia/commons/thumb/a/a2/X_mark.svg/10px-X_mark.svg.png","//upload.wikimedia.org/wikipedia/commons/thumb/0/0a/Willstatter_tropinone_synthesis.png/500px-Willstatter_tropinone_synthesis.png","//upload.wikimedia.org/wikipedia/commons/thumb/a/a5/Robinson_tropinone_synthesis.png/500px-Robinson_tropinone_synthesis.png","//upload.wikimedia.org/wikipedia/commons/thumb/f/f4/TropinoneSynthesisMechanism.svg/673px-TropinoneSynthesisMechanism.svg.png","//bits.wikimedia.org/static-1.21wmf11/skins/vector/images/search-ltr.png?303-4","//bits.wikimedia.org/images/wikimedia-button.png","//bits.wikimedia.org/static-1.21wmf11/skins/common/images/poweredby_mediawiki_88x31.png"],"tags":[["robert_robinson","organic_chemist"],["yield","chemistry"]],"members":["yield","robert_robinson"],"related":["Alkaloid","Robert_Robinson_(organic_chemist)","Organic_chemistry","Atropine","World_War_I","Cocaine","Tropane","Richard_Willstätter","Cycloheptanone","Yield_(chemistry)","Total_synthesis","Bicyclic_molecule","Reactant","Succinaldehyde","Methylamine","Acetonedicarboxylic_acid","Acetone","Biomimetic","Biosynthesis","Tandem_reaction","One-pot_synthesis","Mannich_reaction","Synthetic_equivalent","Activating_group","Buffer_solution","Physiological","PH","Nucleophilic_addition","Methylamine","Succinaldehyde","Imine","Intermolecular","Mannich_reaction","Enolate","Intramolecular","Ecgonidine"]}