{"cursor":"12090","size":15,"audio":[],"currentlang":"en","article":"{{chembox\n| Verifiedfields = changed Watchedfields = changed verifiedrevid = 456367432\n| ImageFile = Galactose-3D-balls.png ImageFileL1 = Beta-D-Galactopyranose.svg\n| ImageSizeL1 = ImageFileR1 = DL-Galactose num.svg ImageSizeR1 = 150 px\n| IUPACName = OtherNames = Section1 = {{Chembox Identifiers ChemSpiderID_Ref =\n| ChemSpiderID = 388480 ChEMBL_Ref = ChEMBL = 300520 KEGG_Ref = KEGG = D04291\n| InChI = 1/C6H12O6/c7-1-2-3(8)4(9)5(10)6(11)12-2/h2-\n| 11H,1H2/t2−,3+,4+,5−,6+/m1/s1 InChIKey = WQZGKKKJIJFFOK-PHYPRBDBBU\n| StdInChI_Ref = StdInChI = 1S/C6H12O6/c7-1-2-3(8)4(9)5(10)6(11)12-2/h2-\n| 11H,1H2/t2−,3+,4+,5−,6+/m1/s1 StdInChIKey_Ref = StdInChIKey = WQZGKKKJIJFFOK-PHYPRBDBSA-\n| N CASNo_Ref = CASNo = 59-23-4 PubChem = 439357 UNII_Ref = UNII = X2RN3Q8DNE\n| ChEBI_Ref = ChEBI = 28061 SMILES = O[C@H]1[C@@H](O)[C@H](O[C@H](O)[C@@H]1O)CO\n| MeSHName = Galactose ATCCode_prefix = V04 ATCCode_suffix = CE01\n| ATC_Supplemental =  (microparticles)\n  }}\n| Section2 = {{Chembox Properties Formula =\n| C 6H 12 O6 MolarMass = 180.156 g\n| mol −1 Appearance = Density = 1.723 g/cm 3 MeltingPtC =\n| 167 BoilingPt = Solubility = 683.0 g/L\n  }}\n| Section3 = {{Chembox Hazards NFPA-H = 2 NFPA-F = 1 NFPA-R = 0 MainHazards =\n| FlashPt = Autoignition =\n  }} }} 'Galactose' (from the Greek stem γάλακτ– galakt–, \"milk\"), sometimes\n  abbreviated 'Gal', is a monosaccharide sugar that is less sweet than glucose.\n  It is a C-4 epimer of glucose.\n\n'Galactan' is a polymer of the sugar galactose found in hemicellulose. Galactan\ncan be converted to galactose by hydrolysis.\n","linknr":446,"url":"D-galactose","recorded":1364220728,"links":["/w/index.php?title=Galactose&action=edit","/w/index.php?title=Galactose&action=edit","//en.wikipedia.org/apple-touch-icon.png","//bits.wikimedia.org/favicon/wikipedia.ico","/w/opensearch_desc.php","//en.wikipedia.org/w/api.php?action=rsd","//creativecommons.org/licenses/by-sa/3.0/","/w/index.php?title=Special:RecentChanges&feed=atom","/wiki/Galactose","//bits.wikimedia.org/en.wikipedia.org/load.php?debug=false&lang=en&modules=ext.gadget.DRN-wizard%2CReferenceTooltips%2Ccharinsert%2Cteahouse%7Cext.wikihiero%7Cmediawiki.legacy.commonPrint%2Cshared%7Cmw.PopUpMediaTransform%7Cskins.vector&only=styles&skin=vector&*","//bits.wikimedia.org/en.wikipedia.org/load.php?debug=false&lang=en&modules=site&only=styles&skin=vector&*","//bits.wikimedia.org/en.wikipedia.org/load.php?debug=false&lang=en&modules=startup&only=scripts&skin=vector&*","//bits.wikimedia.org/geoiplookup","//meta.wikimedia.org","/w/index.php?title=D-galactose&redirect=no","#mw-head","#p-search","/wiki/File:Galactose-3D-balls.png","//upload.wikimedia.org/wikipedia/commons/thumb/5/5c/Galactose-3D-balls.png/200px-Galactose-3D-balls.png","/wiki/File:Beta-D-Galactopyranose.svg","//upload.wikimedia.org/wikipedia/commons/thumb/f/fa/Beta-D-Galactopyranose.svg/100px-Beta-D-Galactopyranose.svg.png","/wiki/File:DL-Galactose_num.svg","//upload.wikimedia.org/wikipedia/commons/thumb/d/d9/DL-Galactose_num.svg/150px-DL-Galactose_num.svg.png","/wiki/CAS_registry_number","http://www.commonchemistry.org/ChemicalDetail.aspx?ref=59-23-4","//upload.wikimedia.org/wikipedia/commons/thumb/a/a2/X_mark.svg/7px-X_mark.svg.png","/wiki/PubChem","http://pubchem.ncbi.nlm.nih.gov/summary/summary.cgi?cid=439357","/wiki/ChemSpider","http://www.chemspider.com/388480","//upload.wikimedia.org/wikipedia/en/thumb/f/fb/Yes_check.svg/7px-Yes_check.svg.png","/wiki/Unique_Ingredient_Identifier","http://fdasis.nlm.nih.gov/srs/srsdirect.jsp?regno=X2RN3Q8DNE","//upload.wikimedia.org/wikipedia/en/thumb/f/fb/Yes_check.svg/7px-Yes_check.svg.png","/wiki/KEGG","http://www.kegg.jp/entry/D04291","//upload.wikimedia.org/wikipedia/commons/thumb/a/a2/X_mark.svg/7px-X_mark.svg.png","/wiki/Medical_Subject_Headings","http://www.nlm.nih.gov/cgi/mesh/2007/MB_cgi?mode=&term=Galactose","/wiki/ChEBI","https://www.ebi.ac.uk/chebi/searchId.do?chebiId=28061","//upload.wikimedia.org/wikipedia/en/thumb/f/fb/Yes_check.svg/7px-Yes_check.svg.png","/wiki/ChEMBL","https://www.ebi.ac.uk/chembldb/index.php/compound/inspect/CHEMBL300520","//upload.wikimedia.org/wikipedia/commons/thumb/a/a2/X_mark.svg/7px-X_mark.svg.png","/wiki/ATC_code","/wiki/ATC_code_V04","http://www.whocc.no/atc_ddd_index/?code=V04CE01","/wiki/ATC_code_V08","http://www.whocc.no/atc_ddd_index/?code=V08DA02","/wiki/Microparticle","/wiki/Jmol","http://chemapps.stolaf.edu/jmol/jmol.php?model=O%5BC%40H%5D1%5BC%40%40H%5D%28O%29%5BC%40H%5D%28O%5BC%40H%5D%28O%29%5BC%40%40H%5D1O%29CO","/wiki/Simplified_molecular-input_line-entry_system","/wiki/International_Chemical_Identifier","//upload.wikimedia.org/wikipedia/en/thumb/f/fb/Yes_check.svg/7px-Yes_check.svg.png","//upload.wikimedia.org/wikipedia/en/thumb/f/fb/Yes_check.svg/7px-Yes_check.svg.png","/wiki/Chemical_formula","/wiki/Molar_mass","/wiki/Density","/wiki/Melting_point","/wiki/Solubility","/wiki/Water","/wiki/NFPA_704","/wiki/File:NFPA_704.svg","//upload.wikimedia.org/wikipedia/commons/thumb/6/6f/NFPA_704.svg/75px-NFPA_704.svg.png","//upload.wikimedia.org/wikipedia/commons/thumb/a/a2/X_mark.svg/14px-X_mark.svg.png","//en.wikipedia.org/w/index.php?title=Special:ComparePages&rev1=456367432&page2=Galactose","/wiki/Wikipedia:WikiProject_Chemicals/Chembox_validation","//upload.wikimedia.org/wikipedia/en/thumb/f/fb/Yes_check.svg/10px-Yes_check.svg.png","//upload.wikimedia.org/wikipedia/commons/thumb/a/a2/X_mark.svg/10px-X_mark.svg.png","/wiki/Standard_state","/wiki/Wikipedia:Chemical_infobox#References","/wiki/Greek_(language)","/wiki/Monosaccharide","/wiki/Carbohydrate","/wiki/Sweetness","/wiki/Glucose","/wiki/Epimer","/wiki/Glucose","/wiki/Polymer","/wiki/Hemicellulose","/wiki/Hydrolysis","#Structure_and_isomerism","#Relationship_to_lactose","#Metabolism","#Sources","#Clinical_significance","#See_also","#References","/w/index.php?title=Galactose&action=edit&section=1","/wiki/Carbonyl","#cite_note-1","/wiki/Pyranose","/wiki/Furanose","#cite_note-2","/wiki/Anomer","/wiki/Stereocenter","/wiki/Carbonyl","#cite_note-3","/wiki/File:D-Galactose_Haworth.svg","//upload.wikimedia.org/wikipedia/commons/thumb/f/fa/D-Galactose_Haworth.svg/330px-D-Galactose_Haworth.svg.png","/wiki/File:D-Galactose_Haworth.svg","//bits.wikimedia.org/static-1.21wmf11/skins/common/images/magnify-clip.png","/w/index.php?title=Galactose&action=edit&section=2","/wiki/Monosaccharide","/wiki/Glucose","/wiki/Condensation_reaction","/wiki/Disaccharide","/wiki/Lactose","/wiki/Hydrolysis","/wiki/Catalysis","/wiki/Enzyme","/wiki/Lactase","/wiki/Beta-galactosidase","/wiki/Lac_operon","/wiki/Escherichia_coli","#cite_note-4","/wiki/Metabolism","/wiki/Leloir_pathway","/wiki/Mammary_gland","/wiki/Breast_milk","#cite_note-sunehag-5","#cite_note-6","/w/index.php?title=Galactose&action=edit&section=3","/wiki/Monosaccharide","/wiki/File:Metabolism_of_common_monosaccharides,_and_related_reactions.png","//upload.wikimedia.org/wikipedia/commons/thumb/6/63/Metabolism_of_common_monosaccharides%2C_and_related_reactions.png/1000px-Metabolism_of_common_monosaccharides%2C_and_related_reactions.png","/wiki/File:Leloir_pathway.png","//upload.wikimedia.org/wikipedia/commons/thumb/f/f5/Leloir_pathway.png/300px-Leloir_pathway.png","/wiki/File:Leloir_pathway.png","//bits.wikimedia.org/static-1.21wmf11/skins/common/images/magnify-clip.png","/wiki/Conservation_(genetics)","#cite_note-OMMBID72-7","/wiki/Leloir_pathway","/w/index.php?title=De_Ley_Doudoroff_pathway&action=edit&redlink=1","/wiki/Uridine_diphosphate_glucose","#cite_note-Bosch07-8","/wiki/Galactosemia","#cite_note-9","/w/index.php?title=Galactose&action=edit&section=4","/wiki/Dairy_product","/wiki/Sugar_beet","/wiki/Natural_gum","/wiki/Mucilage","/wiki/Biosynthesis","/wiki/Glycolipid","/wiki/Glycoprotein","/wiki/Biological_tissue","/w/index.php?title=Galactose&action=edit&section=5","/wiki/Mice","/wiki/Rats","/wiki/Drosophila","/wiki/Senescence","#cite_note-10","/wiki/Ovarian_cancer","#cite_note-11","#cite_note-12","#cite_note-13","#cite_note-14","/wiki/Harvard_School_of_Public_Health","#cite_note-15","/wiki/Focal_segmental_glomerulosclerosis","/wiki/Wikipedia:Citation_needed","/wiki/Wikipedia:Citation_needed","/wiki/ABO_blood_group_system","#cite_note-Raven_and_Johnson-16","/w/index.php?title=Galactose&action=edit&section=6","/wiki/Galactolysis","/w/index.php?title=Galactose&action=edit&section=7","#cite_ref-1","http://www.elmhurst.edu/~chm/vchembook/543galactose.html","#cite_ref-2","http://jb.asm.org/cgi/reprint/178/4/1047.pdf","#cite_ref-3","http://www.elmhurst.edu/~chm/vchembook/543galactose.html","#cite_ref-4","http://digestive.niddk.nih.gov/ddiseases/pubs/lactoseintolerance/","#cite_ref-sunehag_5-0","http://jcem.endojournals.org/cgi/pmidlookup?view=long&pmid=12519857","/wiki/Digital_object_identifier","http://dx.doi.org/10.1210%2Fjc.2002-020768","/wiki/PubMed_Identifier","//www.ncbi.nlm.nih.gov/pubmed/12519857","#cite_ref-6","http://jcem.endojournals.org/cgi/pmidlookup?view=long&pmid=11788663","/wiki/Digital_object_identifier","http://dx.doi.org/10.1210%2Fjc.87.1.297","/wiki/PubMed_Identifier","//www.ncbi.nlm.nih.gov/pubmed/11788663","#cite_ref-OMMBID72_7-0","http://www.ommbid.com/OMMBID/the_online_metabolic_and_molecular_bases_of_inherited_disease/b/abstract/part7/ch72","http://www.ommbid.com/OMMBID/the_online_metabolic_and_molecular_bases_of_inherited_disease/b/abstract/part7/ch72","#cite_ref-Bosch07_8-0","/wiki/Digital_object_identifier","http://dx.doi.org/10.1007%2Fs10545-006-0382-0","/wiki/PubMed_Identifier","//www.ncbi.nlm.nih.gov/pubmed/16838075","#cite_ref-9","http://www.ncbi.nlm.nih.gov/books/NBK1518","#cite_ref-10","/wiki/Digital_object_identifier","http://dx.doi.org/10.1002%2Fjnr.20899","/wiki/PubMed_Identifier","//www.ncbi.nlm.nih.gov/pubmed/16710848","http://en.wikipedia.org/w/index.php?title=Template:Cite_pmid/16710848&action=edit&editintro=Template:Cite_pmid/editintro2","#cite_ref-11","/wiki/PubMed_Identifier","//www.ncbi.nlm.nih.gov/pubmed/2510499","#cite_ref-12","/wiki/Digital_object_identifier","http://dx.doi.org/10.1016%2FS0140-6736%2889%2990313-9","/wiki/PubMed_Identifier","//www.ncbi.nlm.nih.gov/pubmed/2567871","#cite_ref-13","/wiki/Digital_object_identifier","http://dx.doi.org/10.1093%2Faje%2Fkwf104","/wiki/PubMed_Identifier","//www.ncbi.nlm.nih.gov/pubmed/12370157","#cite_ref-14","/wiki/PubMed_Identifier","//www.ncbi.nlm.nih.gov/pubmed/12869412","#cite_ref-15","/wiki/Digital_object_identifier","http://dx.doi.org/10.1158%2F1055-9965.EPI-05-0484","/wiki/PubMed_Identifier","//www.ncbi.nlm.nih.gov/pubmed/16492930","#cite_ref-Raven_and_Johnson_16-0","/wiki/International_Standard_Book_Number","/wiki/Special:BookSources/0-697-22213-6","/wiki/Template:Carbohydrates","/wiki/Template_talk:Carbohydrates","//en.wikipedia.org/w/index.php?title=Template:Carbohydrates&action=edit","/wiki/Carbohydrate","/wiki/Aldose","/wiki/Furanose","/wiki/Ketose","/wiki/Pyranose","/wiki/Anomer","/wiki/Cyclohexane_conformation","/wiki/Mutarotation","/wiki/Monosaccharide","/wiki/Diose","/wiki/Glycolaldehyde","/wiki/Triose","/wiki/Glyceraldehyde","/wiki/Dihydroxyacetone","/wiki/Tetrose","/wiki/Erythrose","/wiki/Threose","/wiki/Erythrulose","/wiki/Pentose","/wiki/Arabinose","/wiki/Lyxose","/wiki/Ribose","/wiki/Xylose","/wiki/Deoxy_sugar","/wiki/Deoxyribose","/wiki/Ribulose","/wiki/Xylulose","/wiki/Hexose","/wiki/Aldohexose","/wiki/Allose","/wiki/Altrose","/wiki/Glucose","/wiki/Gulose","/wiki/Idose","/wiki/Mannose","/wiki/Talose","/wiki/Deoxy_sugar","/wiki/Fucose","/wiki/Fuculose","/wiki/Rhamnose","/wiki/Ketohexose","/wiki/Fructose","/wiki/Psicose","/wiki/Sorbose","/wiki/Tagatose","/wiki/Heptose","/wiki/Mannoheptulose","/wiki/Sedoheptulose","/wiki/Octose","/wiki/Nonose","/wiki/Neuraminic_acid","/wiki/Disaccharide","/wiki/Cellobiose","/wiki/Lactose","/wiki/Maltose","/wiki/Sucrose","/wiki/Trehalose","/wiki/Turanose","/wiki/Trisaccharide","/wiki/Maltotriose","/wiki/Melezitose","/wiki/Raffinose","/wiki/Tetrasaccharide","/wiki/Stachyose","/wiki/Oligosaccharide","/wiki/Acarbose","/wiki/Fructooligosaccharide","/wiki/Galactooligosaccharide","/wiki/Isomaltooligosaccharide","/wiki/Maltodextrin","/wiki/Mannan_oligosaccharide-based_nutritional_supplements","/wiki/Polysaccharide","/wiki/Beta-glucan","/wiki/Lentinan","/wiki/Sizofiran","/wiki/Zymosan","/wiki/Cellulose","/wiki/Chitin","/wiki/Dextrin","/wiki/Dextran","/wiki/Fructose","/wiki/Fructan","/wiki/Inulin","/wiki/Glucose","/wiki/Glucan","/wiki/Glycogen","/wiki/Levan_polysaccharide","/wiki/Mannan","/wiki/Starch","/wiki/Amylopectin","/wiki/Amylose","/wiki/Biochemistry","/wiki/Template:Metabolism","/wiki/Template:Carbohydrates","/wiki/Template:Alcohols","/wiki/Template:Glycoproteins","/wiki/Template:Glycosides","/wiki/Template:Lipids","/wiki/Template:Eicosanoids","/wiki/Template:Fatty_acids","/wiki/Template:Fatty-acid_metabolism_intermediates","/wiki/Template:Phospholipids","/wiki/Template:Sphingolipids","/wiki/Template:Cholesterol_and_steroid_intermediates","/wiki/Template:Nucleic_acids","/wiki/Template:Nucleobases,_nucleosides,_and_nucleotides","/wiki/Template:Nucleotide_metabolism_intermediates","/wiki/Template:Protein_topics","/wiki/Template:AminoAcids","/wiki/Template:Amino_acid_metabolism_intermediates","/wiki/Template:Tetrapyrroles","/wiki/Template:Heme_metabolism_intermediates","http://en.wikipedia.org/w/index.php?title=Galactose&oldid=539428655","/wiki/Help:Categories","/wiki/Category:Galactose","/wiki/Category:Nutrition","/wiki/Category:Sweeteners","/wiki/Category:Articles_with_changed_CASNo","/wiki/Category:Articles_with_changed_KEGG_identifier","/wiki/Category:Articles_with_changed_EBI_identifier","/wiki/Category:Chemboxes_which_contain_changes_to_verified_fields","/wiki/Category:Chemboxes_which_contain_changes_to_watched_fields","/wiki/Category:All_articles_with_unsourced_statements","/wiki/Category:Articles_with_unsourced_statements_from_February_2007","/w/index.php?title=Special:UserLogin&returnto=Galactose&type=signup","/w/index.php?title=Special:UserLogin&returnto=Galactose","/wiki/Galactose","/wiki/Talk:Galactose","#","/wiki/Galactose","/w/index.php?title=Galactose&action=edit","/w/index.php?title=Galactose&action=history","#","/w/index.php","//bits.wikimedia.org/static-1.21wmf11/skins/vector/images/search-ltr.png?303-4","/wiki/Main_Page","/wiki/Main_Page","/wiki/Portal:Contents","/wiki/Portal:Featured_content","/wiki/Portal:Current_events","/wiki/Special:Random","//donate.wikimedia.org/wiki/Special:FundraiserRedirector?utm_source=donate&utm_medium=sidebar&utm_campaign=C13_en.wikipedia.org&uselang=en","/wiki/Help:Contents","/wiki/Wikipedia:About","/wiki/Wikipedia:Community_portal","/wiki/Special:RecentChanges","/wiki/Wikipedia:Contact_us","/wiki/Special:WhatLinksHere/Galactose","/wiki/Special:RecentChangesLinked/Galactose","/wiki/Wikipedia:File_Upload_Wizard","/wiki/Special:SpecialPages","/w/index.php?title=Galactose&oldid=539428655","/w/index.php?title=Galactose&action=info","/w/index.php?title=Special:Cite&page=Galactose&id=539428655","/w/index.php?title=Special:Book&bookcmd=book_creator&referer=Galactose","/w/index.php?title=Special:Book&bookcmd=render_article&arttitle=Galactose&oldid=539428655&writer=rl","/w/index.php?title=Galactose&printable=yes","//ar.wikipedia.org/wiki/%D8%AC%D8%A7%D9%84%D8%A7%D9%83%D8%AA%D9%88%D8%B2","//be.wikipedia.org/wiki/%D0%93%D0%B0%D0%BB%D0%B0%D0%BA%D1%82%D0%BE%D0%B7%D0%B0","//be-x-old.wikipedia.org/wiki/%D0%93%D0%B0%D0%BB%D1%8F%D0%BA%D1%82%D0%BE%D0%B7%D0%B0","//bg.wikipedia.org/wiki/%D0%93%D0%B0%D0%BB%D0%B0%D0%BA%D1%82%D0%BE%D0%B7%D0%B0","//ca.wikipedia.org/wiki/Galactosa","//cs.wikipedia.org/wiki/Galakt%C3%B3za","//da.wikipedia.org/wiki/Galaktose","//de.wikipedia.org/wiki/Galactose","//el.wikipedia.org/wiki/%CE%93%CE%B1%CE%BB%CE%B1%CE%BA%CF%84%CF%8C%CE%B6%CE%B7","//es.wikipedia.org/wiki/Galactosa","//eu.wikipedia.org/wiki/Galaktosa","//fa.wikipedia.org/wiki/%DA%AF%D8%A7%D9%84%D8%A7%DA%A9%D8%AA%D9%88%D8%B2","//fr.wikipedia.org/wiki/Galactose","//fy.wikipedia.org/wiki/Galaktoaze","//gl.wikipedia.org/wiki/Galactosa","//ko.wikipedia.org/wiki/%EA%B0%88%EB%9D%BD%ED%86%A0%EC%8A%A4","//it.wikipedia.org/wiki/Galattosio","//he.wikipedia.org/wiki/%D7%92%D7%9C%D7%A7%D7%98%D7%95%D7%96","//kk.wikipedia.org/wiki/%D0%93%D0%B0%D0%BB%D0%B0%D0%BA%D1%82%D0%BE%D0%B7%D0%B0","//la.wikipedia.org/wiki/Galactosum","//hu.wikipedia.org/wiki/Galakt%C3%B3z","//ms.wikipedia.org/wiki/Galaktosa","//nl.wikipedia.org/wiki/Galactose","//ja.wikipedia.org/wiki/%E3%82%AC%E3%83%A9%E3%82%AF%E3%83%88%E3%83%BC%E3%82%B9","//no.wikipedia.org/wiki/Galaktose","//oc.wikipedia.org/wiki/Galact%C3%B2sa","//pl.wikipedia.org/wiki/Galaktoza","//pt.wikipedia.org/wiki/Galactose","//ro.wikipedia.org/wiki/Galactoz%C4%83","//ru.wikipedia.org/wiki/%D0%93%D0%B0%D0%BB%D0%B0%D0%BA%D1%82%D0%BE%D0%B7%D0%B0","//simple.wikipedia.org/wiki/Galactose","//sr.wikipedia.org/wiki/%D0%93%D0%B0%D0%BB%D0%B0%D0%BA%D1%82%D0%BE%D0%B7%D0%B0","//sh.wikipedia.org/wiki/Galaktoza","//fi.wikipedia.org/wiki/Galaktoosi","//sv.wikipedia.org/wiki/Galaktos","//ta.wikipedia.org/wiki/%E0%AE%95%E0%AE%BE%E0%AE%B2%E0%AE%95%E0%AF%8D%E0%AE%9F%E0%AF%8B%E0%AE%9A%E0%AF%81","//th.wikipedia.org/wiki/%E0%B8%81%E0%B8%B2%E0%B9%81%E0%B8%A5%E0%B9%87%E0%B8%81%E0%B9%82%E0%B8%97%E0%B8%AA","//tr.wikipedia.org/wiki/Galaktoz","//uk.wikipedia.org/wiki/%D0%93%D0%B0%D0%BB%D0%B0%D0%BA%D1%82%D0%BE%D0%B7%D0%B0","//zh.wikipedia.org/wiki/%E5%8D%8A%E4%B9%B3%E7%B3%96","//www.wikidata.org/wiki/Special:ItemByTitle/enwiki/Galactose","//en.wikipedia.org/wiki/Wikipedia:Text_of_Creative_Commons_Attribution-ShareAlike_3.0_Unported_License","//creativecommons.org/licenses/by-sa/3.0/","//wikimediafoundation.org/wiki/Terms_of_Use","//www.wikimediafoundation.org/","//en.wikipedia.org/wiki/Wikipedia:Contact_us","//wikimediafoundation.org/wiki/Privacy_policy","/wiki/Wikipedia:About","/wiki/Wikipedia:General_disclaimer","http://en.m.wikipedia.org/wiki/Galactose","//wikimediafoundation.org/","//bits.wikimedia.org/images/wikimedia-button.png","//www.mediawiki.org/","//bits.wikimedia.org/static-1.21wmf11/skins/common/images/poweredby_mediawiki_88x31.png","//bits.wikimedia.org/en.wikipedia.org/load.php?debug=false&lang=en&modules=skins.vector&only=scripts&skin=vector&*","/w/index.php?title=MediaWiki:Gadget-ReferenceTooltips.js&action=raw&ctype=text/javascript&508635914","//bits.wikimedia.org/en.wikipedia.org/load.php?debug=false&lang=en&modules=site&only=scripts&skin=vector&*"],"instances":["genetics","language"],"pdf":["http://jb.asm.org/cgi/reprint/178/4/1047.pdf"],"categories":["Galactose|","Nutrition","Sweeteners"],"headings":["Structure and isomerism","Relationship to lactose","Metabolism","Sources","Clinical significance","See also","References"],"image":["//upload.wikimedia.org/wikipedia/commons/thumb/5/5c/Galactose-3D-balls.png/200px-Galactose-3D-balls.png","//upload.wikimedia.org/wikipedia/commons/thumb/f/fa/Beta-D-Galactopyranose.svg/100px-Beta-D-Galactopyranose.svg.png","//upload.wikimedia.org/wikipedia/commons/thumb/d/d9/DL-Galactose_num.svg/150px-DL-Galactose_num.svg.png","//upload.wikimedia.org/wikipedia/commons/thumb/a/a2/X_mark.svg/7px-X_mark.svg.png","//upload.wikimedia.org/wikipedia/en/thumb/f/fb/Yes_check.svg/7px-Yes_check.svg.png","//upload.wikimedia.org/wikipedia/en/thumb/f/fb/Yes_check.svg/7px-Yes_check.svg.png","//upload.wikimedia.org/wikipedia/commons/thumb/a/a2/X_mark.svg/7px-X_mark.svg.png","//upload.wikimedia.org/wikipedia/en/thumb/f/fb/Yes_check.svg/7px-Yes_check.svg.png","//upload.wikimedia.org/wikipedia/commons/thumb/a/a2/X_mark.svg/7px-X_mark.svg.png","//upload.wikimedia.org/wikipedia/en/thumb/f/fb/Yes_check.svg/7px-Yes_check.svg.png","//upload.wikimedia.org/wikipedia/en/thumb/f/fb/Yes_check.svg/7px-Yes_check.svg.png","//upload.wikimedia.org/wikipedia/commons/thumb/6/6f/NFPA_704.svg/75px-NFPA_704.svg.png","//upload.wikimedia.org/wikipedia/commons/thumb/a/a2/X_mark.svg/14px-X_mark.svg.png","//upload.wikimedia.org/wikipedia/en/thumb/f/fb/Yes_check.svg/10px-Yes_check.svg.png","//upload.wikimedia.org/wikipedia/commons/thumb/a/a2/X_mark.svg/10px-X_mark.svg.png","//upload.wikimedia.org/wikipedia/commons/thumb/f/fa/D-Galactose_Haworth.svg/330px-D-Galactose_Haworth.svg.png","//bits.wikimedia.org/static-1.21wmf11/skins/common/images/magnify-clip.png","//upload.wikimedia.org/wikipedia/commons/thumb/6/63/Metabolism_of_common_monosaccharides%2C_and_related_reactions.png/1000px-Metabolism_of_common_monosaccharides%2C_and_related_reactions.png","//upload.wikimedia.org/wikipedia/commons/thumb/f/f5/Leloir_pathway.png/300px-Leloir_pathway.png","//bits.wikimedia.org/static-1.21wmf11/skins/common/images/magnify-clip.png","//bits.wikimedia.org/static-1.21wmf11/skins/vector/images/search-ltr.png?303-4","//bits.wikimedia.org/images/wikimedia-button.png","//bits.wikimedia.org/static-1.21wmf11/skins/common/images/poweredby_mediawiki_88x31.png"],"tags":[["greek","language"],["conservation","genetics"]],"members":["conservation","greek"],"related":["Microparticle","Greek_(language)","Monosaccharide","Carbohydrate","Sweetness","Glucose","Epimer","Glucose","Polymer","Hemicellulose","Hydrolysis","Carbonyl","Pyranose","Furanose","Anomer","Stereocenter","Carbonyl","Monosaccharide","Glucose","Condensation_reaction","Disaccharide","Lactose","Hydrolysis","Catalysis","Enzyme","Lactase","Beta-galactosidase","Lac_operon","Metabolism","Leloir_pathway","Mammary_gland","Breast_milk","Monosaccharide","Conservation_(genetics)","Leloir_pathway","De_Ley_Doudoroff_pathway","Uridine_diphosphate_glucose","Galactosemia","Dairy_product","Sugar_beet","Natural_gum","Mucilage","Biosynthesis","Glycolipid","Glycoprotein","Biological_tissue","Mice","Rats","Senescence","Ovarian_cancer","Harvard_School_of_Public_Health","Focal_segmental_glomerulosclerosis","ABO_blood_group_system","Galactolysis"]}