{"cursor":"3488","size":15,"audio":[],"currentlang":"en","article":"{{chembox\n| Watchedfields = changed verifiedrevid = 444006832 Name = Mandelonitrile [http://www.sigmaaldrich.com/catalog/search/ProductDetail/ALDRICH/4-\n| 69653 Sigma-Aldrich product page] ImageFile = Racemic-mandelonitrile-2D-\n| skeletal.png ImageSize = 160 ImageAlt = Skeletal formula ImageName = Racemic\n| mandelonitrile (ambiguous chirality) ImageFile1 = (S)-Mandelonitrile-3D-\n| balls.png ImageSize1 = 160 ImageAlt1 = Ball-and-stick model ImageName1 = (S)-\n| Mandelonitrile IUPACName = 2-hydroxy-2-phenylacetonitrile OtherNames = α-\n| hydroxybenzeneacetonitrile Section1 = {{Chembox Identifiers Abbreviations =\n| ChemSpiderID_Ref = ChemSpiderID = 10304 InChI = 1/C8H7NO/c9-6-8(10)7-4-2-1-3-5-7/h1-\n| 5,8,10H InChIKey = NNICRUQPODTGRU-UHFFFAOYAG StdInChI_Ref = StdInChI = 1S/C8H7NO/c9-6-8(10)7-4-2-1-3-5-7/h1-\n| 5,8,10H StdInChIKey_Ref = StdInChIKey = NNICRUQPODTGRU-UHFFFAOYSA-N CASNo_Ref\n| = CASNo = 532-28-5 EINECS = PubChem = 10758 SMILES = N#CC(O)c1ccccc1 InChI =\n| RTECS = MeSHName = ChEBI_Ref = ChEBI = 16910 KEGG_Ref = KEGG = C00561\n| ATCCode_prefix = ATCCode_suffix = ATC_Supplemental =}} Section2 = {{Chembox\n| Properties Formula = C 8H 7NO MolarMass = 133.15 g\n| mol −1 Appearance = Density = 1.117 g/mL at 25 °C MeltingPt = 28-30\n| °C Melting_notes = BoilingPt = 170 °C Boiling_notes = Solubility =\n| SolubleOther = Solvent = pKa = pKb = }} Section7 = {{Chembox Hazards\n| ExternalMSDS = EUClass = EUIndex = MainHazards = toxic NFPA-H = NFPA-F = NFPA-\n| R = NFPA-O = RPhrases = SPhrases = RSPhrases = FlashPt = 113 °C Autoignition =\n| ExploLimits = PEL = }} Section8 = {{Chembox Related OtherAnions = OtherCations\n| = OtherFunctn = Function = OtherCpds = mandelic acid, phenylacetonitrile}}\n}}\n\n'Mandelonitrile' is a chemical compound of the cyanohydrin class. Small amounts\nof mandelonitrile occur in the pits of some fruits.\n","linknr":150,"url":"Mandelonitrile","recorded":1374965481,"links":["/w/index.php?title=Mandelonitrile&action=edit","/w/index.php?title=Mandelonitrile&action=edit","//bits.wikimedia.org/favicon/wikipedia.ico","/w/opensearch_desc.php","//en.wikipedia.org/w/api.php?action=rsd","//creativecommons.org/licenses/by-sa/3.0/","/w/index.php?title=Special:RecentChanges&feed=atom","//bits.wikimedia.org/en.wikipedia.org/load.php?debug=false&lang=en&modules=ext.gadget.DRN-wizard%2CReferenceTooltips%2Ccharinsert%2Cteahouse%7Cext.rtlcite%2Cwikihiero%7Cext.uls.nojs%7Cmediawiki.legacy.commonPrint%2Cshared%7Cmw.PopUpMediaTransform%7Cskins.vector&only=styles&skin=vector&*","//bits.wikimedia.org/en.wikipedia.org/load.php?debug=false&lang=en&modules=site&only=styles&skin=vector&*","//bits.wikimedia.org/en.wikipedia.org/load.php?debug=false&lang=en&modules=startup&only=scripts&skin=vector&*","//bits.wikimedia.org/geoiplookup","//meta.wikimedia.org","#mw-navigation","#p-search","#cite_note-SA-1","/wiki/File:Racemic-mandelonitrile-2D-skeletal.png","//upload.wikimedia.org/wikipedia/commons/thumb/f/f9/Racemic-mandelonitrile-2D-skeletal.png/160px-Racemic-mandelonitrile-2D-skeletal.png","/wiki/File:(S)-Mandelonitrile-3D-balls.png","//upload.wikimedia.org/wikipedia/commons/thumb/1/1d/%28S%29-Mandelonitrile-3D-balls.png/160px-%28S%29-Mandelonitrile-3D-balls.png","/wiki/International_Union_of_Pure_and_Applied_Chemistry_nomenclature","/wiki/CAS_registry_number","http://www.commonchemistry.org/ChemicalDetail.aspx?ref=532-28-5","//upload.wikimedia.org/wikipedia/en/thumb/f/fb/Yes_check.svg/7px-Yes_check.svg.png","/wiki/PubChem","http://pubchem.ncbi.nlm.nih.gov/summary/summary.cgi?cid=10758","/wiki/ChemSpider","http://www.chemspider.com/10304","//upload.wikimedia.org/wikipedia/en/thumb/f/fb/Yes_check.svg/7px-Yes_check.svg.png","/wiki/KEGG","http://www.kegg.jp/entry/C00561","//upload.wikimedia.org/wikipedia/en/thumb/f/fb/Yes_check.svg/7px-Yes_check.svg.png","/wiki/ChEBI","https://www.ebi.ac.uk/chebi/searchId.do?chebiId=16910","//upload.wikimedia.org/wikipedia/en/thumb/f/fb/Yes_check.svg/7px-Yes_check.svg.png","/wiki/Jmol","http://chemapps.stolaf.edu/jmol/jmol.php?model=N%23CC%28O%29c1ccccc1","/wiki/Simplified_molecular-input_line-entry_system","/wiki/International_Chemical_Identifier","//upload.wikimedia.org/wikipedia/en/thumb/f/fb/Yes_check.svg/7px-Yes_check.svg.png","//upload.wikimedia.org/wikipedia/en/thumb/f/fb/Yes_check.svg/7px-Yes_check.svg.png","/wiki/Chemical_formula","/wiki/Molar_mass","/wiki/Density","/wiki/Melting_point","/wiki/Boiling_point","/wiki/List_of_R-phrases","/wiki/R23/24/25:_Toxic_by_inhalation,_in_contact_with_skin_and_if_swallowed","/wiki/R36/37/38:_Irritating_to_eyes,_respiratory_system_and_skin","/wiki/R41:_Risk_of_serious_damage_to_eyes","/wiki/List_of_S-phrases","/wiki/S22:_Do_not_breathe_dust","/wiki/S26:_In_case_of_contact_with_eyes,_rinse_immediately_with_plenty_of_water_and_seek_medical_advice","/wiki/S36/37/39:_Wear_suitable_protective_clothing,_gloves_and_eye/face_protection","/wiki/S45:_In_case_of_accident_or_if_you_feel_unwell_seek_medical_advice_immediately_(show_the_label_where_possible)","/wiki/Worker_safety_and_health","/wiki/Flash_point","/wiki/Mandelic_acid","/wiki/Phenylacetonitrile","//upload.wikimedia.org/wikipedia/en/thumb/f/fb/Yes_check.svg/14px-Yes_check.svg.png","//en.wikipedia.org/w/index.php?title=Special:ComparePages&rev1=444006832&page2=Mandelonitrile","/wiki/Wikipedia:WikiProject_Chemicals/Chembox_validation","//upload.wikimedia.org/wikipedia/en/thumb/f/fb/Yes_check.svg/10px-Yes_check.svg.png","//upload.wikimedia.org/wikipedia/commons/thumb/a/a2/X_mark.svg/10px-X_mark.svg.png","/wiki/Standard_state","/wiki/Wikipedia:Chemical_infobox#References","/wiki/Chemical_compound","/wiki/Cyanohydrin","/wiki/Drupe","/w/index.php?title=Mandelonitrile&action=edit&section=1","/wiki/Prunasin","/wiki/Amygdalin","/wiki/Alpha_hydroxy_acid","/wiki/Amino_alcohol","#cite_note-2","/wiki/Cyanide","/wiki/Benzaldehyde","/wiki/Mandelonitrile_lyase","/w/index.php?title=Mandelonitrile&action=edit&section=2","/wiki/Racemic","/wiki/Benzaldehyde","/wiki/Sodium_bisulfite","/wiki/Sodium_cyanide","#cite_note-Corson-3","/wiki/File:Preparation_of_mandelonitrile.png","//upload.wikimedia.org/wikipedia/commons/thumb/c/c0/Preparation_of_mandelonitrile.png/400px-Preparation_of_mandelonitrile.png","/w/index.php?title=Mandelonitrile&action=edit&section=3","#cite_ref-SA_1-0","http://www.sigmaaldrich.com/catalog/search/ProductDetail/ALDRICH/469653","#cite_ref-2","#cite_ref-Corson_3-0","http://www.orgsyn.org/orgsyn/orgsyn/prepContent.asp?prep=cv1p0336","/wiki/Organic_Syntheses","//en.wikipedia.org/w/index.php?title=Special:CentralAutoLogin/start&type=1x1&from=enwiki","http://en.wikipedia.org/w/index.php?title=Mandelonitrile&oldid=565899120","/wiki/Help:Categories","/wiki/Category:Cyanohydrins","/wiki/Category:Chemboxes_which_contain_changes_to_watched_fields","/w/index.php?title=Special:UserLogin&returnto=Mandelonitrile&type=signup","/w/index.php?title=Special:UserLogin&returnto=Mandelonitrile","/wiki/Mandelonitrile","/wiki/Talk:Mandelonitrile","#","/wiki/Mandelonitrile","/w/index.php?title=Mandelonitrile&action=edit","/w/index.php?title=Mandelonitrile&action=history","#","/w/index.php","//bits.wikimedia.org/static-1.22wmf11/skins/vector/images/search-ltr.png?303-4","/wiki/Main_Page","/wiki/Main_Page","/wiki/Portal:Contents","/wiki/Portal:Featured_content","/wiki/Portal:Current_events","/wiki/Special:Random","//donate.wikimedia.org/wiki/Special:FundraiserRedirector?utm_source=donate&utm_medium=sidebar&utm_campaign=C13_en.wikipedia.org&uselang=en","/wiki/Help:Contents","/wiki/Wikipedia:About","/wiki/Wikipedia:Community_portal","/wiki/Special:RecentChanges","//en.wikipedia.org/wiki/Wikipedia:Contact_us","/wiki/Special:WhatLinksHere/Mandelonitrile","/wiki/Special:RecentChangesLinked/Mandelonitrile","/wiki/Wikipedia:File_Upload_Wizard","/wiki/Special:SpecialPages","/w/index.php?title=Mandelonitrile&oldid=565899120","/w/index.php?title=Mandelonitrile&action=info","//www.wikidata.org/wiki/Q3844407","/w/index.php?title=Special:Cite&page=Mandelonitrile&id=565899120","/w/index.php?title=Special:Book&bookcmd=book_creator&referer=Mandelonitrile","/w/index.php?title=Special:Book&bookcmd=render_article&arttitle=Mandelonitrile&oldid=565899120&writer=rl","/w/index.php?title=Mandelonitrile&printable=yes","//fa.wikipedia.org/wiki/%D9%85%D9%86%D8%AF%D9%84%D9%88%D9%86%DB%8C%D8%AA%D8%B1%DB%8C%D9%84","//it.wikipedia.org/wiki/Mandelonitrile","//ja.wikipedia.org/wiki/%E3%83%9E%E3%83%B3%E3%83%87%E3%83%AD%E3%83%8B%E3%83%88%E3%83%AA%E3%83%AB","#","//www.wikidata.org/wiki/Q3844407#sitelinks-wikipedia","//en.wikipedia.org/wiki/Wikipedia:Text_of_Creative_Commons_Attribution-ShareAlike_3.0_Unported_License","//creativecommons.org/licenses/by-sa/3.0/","//wikimediafoundation.org/wiki/Terms_of_Use","//wikimediafoundation.org/wiki/Privacy_policy","//www.wikimediafoundation.org/","//wikimediafoundation.org/wiki/Privacy_policy","/wiki/Wikipedia:About","/wiki/Wikipedia:General_disclaimer","//en.wikipedia.org/wiki/Wikipedia:Contact_us","//en.m.wikipedia.org/wiki/Mandelonitrile","//wikimediafoundation.org/","//bits.wikimedia.org/images/wikimedia-button.png","//www.mediawiki.org/","//bits.wikimedia.org/static-1.22wmf11/skins/common/images/poweredby_mediawiki_88x31.png","//bits.wikimedia.org/en.wikipedia.org/load.php?debug=false&lang=en&modules=site&only=scripts&skin=vector&*"],"instances":[],"pdf":[],"categories":["Cyanohydrins"],"headings":["Occurrence","Preparation","References"],"image":["//upload.wikimedia.org/wikipedia/commons/thumb/f/f9/Racemic-mandelonitrile-2D-skeletal.png/160px-Racemic-mandelonitrile-2D-skeletal.png","//upload.wikimedia.org/wikipedia/commons/thumb/1/1d/%28S%29-Mandelonitrile-3D-balls.png/160px-%28S%29-Mandelonitrile-3D-balls.png","//upload.wikimedia.org/wikipedia/en/thumb/f/fb/Yes_check.svg/7px-Yes_check.svg.png","//upload.wikimedia.org/wikipedia/en/thumb/f/fb/Yes_check.svg/7px-Yes_check.svg.png","//upload.wikimedia.org/wikipedia/en/thumb/f/fb/Yes_check.svg/7px-Yes_check.svg.png","//upload.wikimedia.org/wikipedia/en/thumb/f/fb/Yes_check.svg/7px-Yes_check.svg.png","//upload.wikimedia.org/wikipedia/en/thumb/f/fb/Yes_check.svg/7px-Yes_check.svg.png","//upload.wikimedia.org/wikipedia/en/thumb/f/fb/Yes_check.svg/7px-Yes_check.svg.png","//upload.wikimedia.org/wikipedia/en/thumb/f/fb/Yes_check.svg/14px-Yes_check.svg.png","//upload.wikimedia.org/wikipedia/en/thumb/f/fb/Yes_check.svg/10px-Yes_check.svg.png","//upload.wikimedia.org/wikipedia/commons/thumb/a/a2/X_mark.svg/10px-X_mark.svg.png","//upload.wikimedia.org/wikipedia/commons/thumb/c/c0/Preparation_of_mandelonitrile.png/400px-Preparation_of_mandelonitrile.png","//en.wikipedia.org/w/index.php?title=Special:CentralAutoLogin/start&type=1x1&from=enwiki","//bits.wikimedia.org/static-1.22wmf11/skins/vector/images/search-ltr.png?303-4","//bits.wikimedia.org/images/wikimedia-button.png","//bits.wikimedia.org/static-1.22wmf11/skins/common/images/poweredby_mediawiki_88x31.png"],"tags":[],"members":[],"related":["Mandelic_acid","Phenylacetonitrile","Chemical_compound","Cyanohydrin","Drupe","Prunasin","Amygdalin","Alpha_hydroxy_acid","Amino_alcohol","Cyanide","Benzaldehyde","Mandelonitrile_lyase","Racemic","Benzaldehyde","Sodium_bisulfite","Sodium_cyanide"]}