{"cursor":"15130","size":15,"audio":[],"currentlang":"en","article":"\n\nThe 'melting point' of a solid is the temperature at which it changes state from\nsolid to liquid. At the melting point the solid and liquid phase exist in\nequilibrium. The melting point of a substance depends (usually slightly) on\npressure and is usually specified at standard pressure. When considered as the\ntemperature of the reverse change from liquid to solid, it is referred to as the\n'freezing point' or 'crystallization point'. Because of the ability of some\nsubstances to supercool, the freezing point is not considered as a\ncharacteristic property of a substance. When the \"characteristic freezing point\"\nof a substance is determined, in fact the actual methodology is almost always\n\"the principle of observing the disappearance rather than the formation of ice\",\nthat is, the melting point.\n","linknr":411,"url":"Melting_point","recorded":1362481590,"links":92,"instances":["element","matter","physics","unit"],"pdf":["http://jeb.biologists.org/cgi/reprint/26/1/57.pdf","http://jeb.biologists.org/cgi/reprint/26/1/57.pdf"],"categories":["Atmospheric thermodynamics","Concepts in physics","Phase transitions","Threshold temperatures"],"headings":["Examples","Melting point measurements","Thermodynamics","Freezing-point depression","Carnelley's Rule","Predicting the melting point of substances (Lindemann's criterion)","Open melting point data","See also","References","External links"],"image":["//upload.wikimedia.org/wikipedia/commons/thumb/a/a2/Carboxylic.Acids.Melting.%26.Boiling.Points.jpg/220px-Carboxylic.Acids.Melting.%26.Boiling.Points.jpg","//bits.wikimedia.org/static-1.21wmf10/skins/common/images/magnify-clip.png","//upload.wikimedia.org/wikipedia/commons/thumb/7/75/Koflerbank.jpg/220px-Koflerbank.jpg","//bits.wikimedia.org/static-1.21wmf10/skins/common/images/magnify-clip.png","//upload.wikimedia.org/wikipedia/commons/thumb/9/95/KruessM5k.jpg/220px-KruessM5k.jpg","//bits.wikimedia.org/static-1.21wmf10/skins/common/images/magnify-clip.png","//upload.wikimedia.org/wikipedia/commons/thumb/c/c6/Melting_curve_of_water.jpg/220px-Melting_curve_of_water.jpg","//bits.wikimedia.org/static-1.21wmf10/skins/common/images/magnify-clip.png","//upload.wikimedia.org/math/0/9/a/09aba87f1f9c817fa0b4f838a9478fdc.png","//upload.wikimedia.org/math/4/7/7/47789cf0dbfb6845361d1ff147276052.png","//upload.wikimedia.org/math/d/a/b/dab9a885c313b2f70f23b1e129aa665c.png","//upload.wikimedia.org/math/4/6/b/46b129525c8bcab2dfeb7eee24dd3f85.png","//upload.wikimedia.org/math/b/5/1/b51df2108db2e89df1116866e495604f.png","//upload.wikimedia.org/wikipedia/commons/thumb/0/0b/Phase_change_-_en.svg/300px-Phase_change_-_en.svg.png","//bits.wikimedia.org/static-1.21wmf10/skins/vector/images/search-ltr.png?303-4","//bits.wikimedia.org/images/wikimedia-button.png","//bits.wikimedia.org/static-1.21wmf10/skins/common/images/poweredby_mediawiki_88x31.png"],"tags":[["mercury","element"],["sublimation","physics"],["pascal","unit"],["phase","matter"]],"members":["mercury","phase","sublimation","pascal"],"related":["States_of_matter","Solid","Liquid","Standard_conditions_for_temperature_and_pressure","Supercool","Melting","Freezing","Chemical_element","Mercury_(element)","Kelvin","Celsius","Fahrenheit","Agar","Hysteresis","Ice","Nucleation","Supercooling","Chemical_element","Tungsten","Carbon","Sublimation_(physics)","Pascal_(unit)","Tantalum_hafnium_carbide","Refractory","Helium","Absolute_zero","Laboratory_techniques","Kofler_bench","Differential_scanning_calorimetry","Enthalpy_of_fusion","Oil_bath","Thiele_tube","Heat_of_fusion","Gibbs_free_energy","Enthalpy","Entropy","Temperature","Entropy","Enthalpy","Pressure","Boiling_point","Clausius-Clapeyron_relation","Glass","Glass_transition","Viscous_liquid","Softening_point","Solvent","Solution","Organic_chemistry","Structural_isomer","Molecular_formula","Isopentane","N-pentane","Neopentane","Xylene","Dichlorobenzene","Arene_substitution_patterns","Pyridine","Benzene","Diazine","Triazine","Adamantane","Cubane","Heat_of_fusion","Entropy_of_fusion","Frederick_Lindemann","Equipartition_theorem","Atomic_mass","Frequency","Boltzmann_constant","Thermodynamic_temperature","Lindemann_index","Atomic_spacing","Debye_frequency","Debye_temperature","Planck_constant","Alfa_Aesar","Open_data","Random_forest","Nature_Precedings","List_of_elements_by_melting_point","Phase_(matter)","Triple_point","Liquidus_temperature","Slip_melting_point","Solidus_temperature","Open_Data"]}