{"cursor":"5949","size":15,"audio":[],"currentlang":"en","article":"{{chembox\n| Verifiedfields = changed Watchedfields = changed verifiedrevid = 444133047\n| Name = Tangeritin (Tangeretin) ImageFile = Tangeritin.svg\n\n|   ImageName = IUPACName = 5,6,7,8-tetramethoxy-2- (4-methoxyphenyl)-4H-\n|   1-benzopyran-4-one Section1 = {{Chembox Identifiers CASNo_Ref = CASNo\n|   = 481-53-8 ChEBI_Ref = ChEBI = 9400 UNII_Ref = UNII = I4TLA1DLX6 SMILES =\n|   O=C2C1=C(OC)C(OC)=C(OC)C(OC) =C1OC(C3=CC=C(OC)C=C3)=C2\n  }}\n| Section2 = {{Chembox Properties Formula =\n| C 20 H20 O7 MolarMass = 372.37 g/mol Density =\n| 1.244 ± 0.06 g/cm³ SciFinder.com (accessed Nov. 6, 2012).\n| Tangeretin (481-53-8). BoilingPt = 565.3 ± 50.0 °C MeltingPt = 155-156 °C\n  }} }}\n\n'Tangeritin' is an O-polymethoxylated flavone that is found in tangerine and\nother citrus peels. Tangeritin strengthens the cell wall and acts as a plant's\ndefensive mechanism against disease-causing pathogens. Uckoo,\nRM; et al. Sep. Purif. Technol. 2011. \n\nIt has also been used as a marker compound to detect contamination in citrus\njuices.\n\nAlthough few randomized, double-blind human studies have been done, animal\nresearch shows the potential of tangeritin as a cholesterol lowering\nagent. A study on rats demonstrated potential protective effects\nagainst Parkinson's disease.\n\nTangeritin also shows enormous potential as an anti cancer agent. In in vitro\nstudies, tangeritin appears to counteract some of the adaptations of cancer\ncells. Tangeritin induced apoptosis in leukemia cells while sparing normal\ncells. In a study on two human breast cancer cell lines and one colon\ncancer cell line, tangeritin blocked cell cycle progression at the G1 (growth)\nphase in all three cell lines, without inducing apoptosis in the tumor cell\nlines. Once tangeritin was removed from the tumor cells, their cell cycle\nprogression returned to normal. Morley, KL; et al. Cancer Lett. 2007. \nTangeritin also counteracts tumor suppression of gap junction intercellular\nsignaling. In summary, in vitro studies show\nantimutagenic, antiinvasive and\nantiproliferative effects. One caveat is that tangeritin appears to\ncounteract the anticancer drug tamoxifen and to suppress the activity of natural\nkiller cells. H\n\nThe following is a list of methods used to extract tangeritin from citrus peels:\n* column chromatography\n* preparative-high performance liquid chromatography\n* super critical fluid chromatography\n* high speed counter current chromatography\n* a combination of vacuum flash silica gel chromatography and flash\n  C 8 column chromatography\n* flash chromatography However, methods for tangeritin extraction are currently\n  being tested to maximize efficiency and percent yields as its uses in\n  treatment of cancer and other diseases are becoming better understood.\n\nTangeritin is commercially available as a dietary supplement.\n","linknr":236,"url":"Tangeritin","recorded":1374760042,"links":["/w/index.php?title=Tangeritin&action=edit","/w/index.php?title=Tangeritin&action=edit","//bits.wikimedia.org/favicon/wikipedia.ico","/w/opensearch_desc.php","//en.wikipedia.org/w/api.php?action=rsd","//creativecommons.org/licenses/by-sa/3.0/","/w/index.php?title=Special:RecentChanges&feed=atom","//bits.wikimedia.org/en.wikipedia.org/load.php?debug=false&lang=en&modules=ext.gadget.DRN-wizard%2CReferenceTooltips%2Ccharinsert%2Cteahouse%7Cext.rtlcite%2Cwikihiero%7Cext.uls.nojs%7Cmediawiki.legacy.commonPrint%2Cshared%7Cmw.PopUpMediaTransform%7Cskins.vector&only=styles&skin=vector&*","//bits.wikimedia.org/en.wikipedia.org/load.php?debug=false&lang=en&modules=site&only=styles&skin=vector&*","//bits.wikimedia.org/en.wikipedia.org/load.php?debug=false&lang=en&modules=startup&only=scripts&skin=vector&*","//bits.wikimedia.org/geoiplookup","//meta.wikimedia.org","#mw-navigation","#p-search","/wiki/File:Tangeritin.svg","//upload.wikimedia.org/wikipedia/commons/thumb/0/08/Tangeritin.svg/200px-Tangeritin.svg.png","/wiki/International_Union_of_Pure_and_Applied_Chemistry_nomenclature","/wiki/CAS_registry_number","http://www.commonchemistry.org/ChemicalDetail.aspx?ref=481-53-8","//upload.wikimedia.org/wikipedia/en/thumb/f/fb/Yes_check.svg/7px-Yes_check.svg.png","/wiki/Unique_Ingredient_Identifier","http://fdasis.nlm.nih.gov/srs/srsdirect.jsp?regno=I4TLA1DLX6","//upload.wikimedia.org/wikipedia/en/thumb/f/fb/Yes_check.svg/7px-Yes_check.svg.png","/wiki/ChEBI","https://www.ebi.ac.uk/chebi/searchId.do?chebiId=9400","//upload.wikimedia.org/wikipedia/commons/thumb/a/a2/X_mark.svg/7px-X_mark.svg.png","/wiki/Jmol","http://chemapps.stolaf.edu/jmol/jmol.php?model=O%3DC2C1%3DC%28OC%29C%28OC%29%3DC%28OC%29C%28OC%29%3Cbr+%2F%3E%3DC1OC%28C3%3DCC%3DC%28OC%29C%3DC3%29%3DC2","/wiki/Simplified_molecular-input_line-entry_system","/wiki/Chemical_formula","/wiki/Molar_mass","/wiki/Density","#cite_note-SciFinder-1","/wiki/Melting_point","/wiki/Boiling_point","#cite_note-SciFinder-1","//upload.wikimedia.org/wikipedia/commons/thumb/a/a2/X_mark.svg/14px-X_mark.svg.png","//en.wikipedia.org/w/index.php?title=Special:ComparePages&rev1=444133047&page2=Tangeritin","/wiki/Wikipedia:WikiProject_Chemicals/Chembox_validation","//upload.wikimedia.org/wikipedia/en/thumb/f/fb/Yes_check.svg/10px-Yes_check.svg.png","//upload.wikimedia.org/wikipedia/commons/thumb/a/a2/X_mark.svg/10px-X_mark.svg.png","/wiki/Standard_state","/wiki/Wikipedia:Chemical_infobox#References","/wiki/O-methylated_flavone","/wiki/Tangerine","/wiki/Citrus","#cite_note-Uckoo-2","#cite_note-Uckoo-2","#cite_note-3","/wiki/Parkinson%27s_disease","#cite_note-4","/wiki/Apoptosis","#cite_note-5","#cite_note-6","/wiki/Gap_junction","/wiki/Cell_signaling","#cite_note-7","#cite_note-8","#cite_note-9","#cite_note-10","/wiki/Tamoxifen","#cite_note-11","#cite_note-Uckoo-2","/w/index.php?title=Tangeritin&action=edit&section=1","#cite_ref-SciFinder_1-0","#cite_ref-SciFinder_1-1","#cite_ref-Uckoo_2-0","#cite_ref-Uckoo_2-1","#cite_ref-Uckoo_2-2","#cite_ref-3","/wiki/Digital_object_identifier","http://dx.doi.org/10.1021%2Fjf035354z","/wiki/PubMed_Identifier","//www.ncbi.nlm.nih.gov/pubmed/15137829","#cite_ref-4","/wiki/Digital_object_identifier","http://dx.doi.org/10.1097%2F00001756-200112040-00053","/wiki/PubMed_Identifier","//www.ncbi.nlm.nih.gov/pubmed/11726811","#cite_ref-5","http://www.ncbi.nlm.nih.gov/pmc/articles/PMC2034105","/wiki/Digital_object_identifier","http://dx.doi.org/10.1038%2Fbjc.1995.518","/wiki/PubMed_Central","//www.ncbi.nlm.nih.gov/pmc/articles/PMC2034105","/wiki/PubMed_Identifier","//www.ncbi.nlm.nih.gov/pubmed/8519648","#cite_ref-6","#cite_ref-7","/wiki/Digital_object_identifier","http://dx.doi.org/10.1016%2FS0304-3835%2897%2904664-8","/wiki/PubMed_Identifier","//www.ncbi.nlm.nih.gov/pubmed/9103293","#cite_ref-8","/wiki/Digital_object_identifier","http://dx.doi.org/10.1055%2Fs-2006-957864","/wiki/PubMed_Identifier","//www.ncbi.nlm.nih.gov/pubmed/8693033","#cite_ref-9","/wiki/Digital_object_identifier","http://dx.doi.org/10.1007%2FBF01753681","/wiki/PubMed_Identifier","//www.ncbi.nlm.nih.gov/pubmed/2924447","#cite_ref-10","/wiki/Digital_object_identifier","http://dx.doi.org/10.1016%2F0304-3835%2891%2990089-Z","/wiki/PubMed_Identifier","//www.ncbi.nlm.nih.gov/pubmed/1998943","#cite_ref-11","/wiki/Digital_object_identifier","http://dx.doi.org/10.1016%2FS0959-8049%2800%2900234-3","/wiki/PubMed_Identifier","//www.ncbi.nlm.nih.gov/pubmed/11056327","/wiki/Template:Flavone","/wiki/Template_talk:Flavone","//en.wikipedia.org/w/index.php?title=Template:Flavone&action=edit","/wiki/Flavones","/wiki/6-Hydroxyflavone","/wiki/Chrysin","/wiki/4%27,7-Dihydroxyflavone","/wiki/Apigenin","/wiki/Baicalein","/wiki/Norwogonin","/wiki/Isoscutellarein","/wiki/Luteolin","/wiki/Norartocarpetin","/wiki/Scutellarein","/wiki/Hypolaetin","/wiki/Tricetin","/wiki/Acacetin","/w/index.php?title=Artocarpetin&action=edit&redlink=1","/wiki/Diosmetin","/wiki/Eupatilin","/wiki/Genkwanin","/wiki/Nepetin","/wiki/Nobiletin","/wiki/Oroxylin_A","/wiki/Pratol","/wiki/Sinensetin","/wiki/Techtochrysin","/wiki/Tricin","/wiki/Wogonin","/wiki/Zapotin","/wiki/Glycoside","/wiki/Apiin","/wiki/Apigetrin","/wiki/Isovitexin","/wiki/Rhoifolin","/wiki/Saponarin","/w/index.php?title=Schaftoside&action=edit&redlink=1","/w/index.php?title=Vicenin-2&action=edit&redlink=1","/wiki/Vitexin","/wiki/Baicalin","/wiki/Tetuin","/w/index.php?title=Hypolaetin_8-glucoside&action=edit&redlink=1","/w/index.php?title=Hypolaetin_8-glucuronide&action=edit&redlink=1","/wiki/Cynaroside","/wiki/Isoorientin","/wiki/Orientin","/w/index.php?title=Veronicastroside&action=edit&redlink=1","/w/index.php?title=Giraldiin_A&action=edit&redlink=1","/w/index.php?title=Giraldiin_B&action=edit&redlink=1","/w/index.php?title=Nepitrin&action=edit&redlink=1","/wiki/Oroxindin","/wiki/Scutellarin","/w/index.php?title=Artocarpetin_A&action=edit&redlink=1","/w/index.php?title=Artoindonesianin_P&action=edit&redlink=1","/wiki/Theograndin_I","/w/index.php?title=Theograndin_II&action=edit&redlink=1","/wiki/Amentoflavone","/wiki/Diosmin","/wiki/Flavoxate","/wiki/Hidrosmin","//en.wikipedia.org/w/index.php?title=Special:CentralAutoLogin/start&type=1x1&from=enwiki","http://en.wikipedia.org/w/index.php?title=Tangeritin&oldid=561930889","/wiki/Help:Categories","/wiki/Category:O-Methylated_flavones","/wiki/Category:Flavonoids_found_in_Rutaceae","/wiki/Category:Chemical_pages_needing_a_ChemSpiderID","/wiki/Category:Articles_with_changed_EBI_identifier","/wiki/Category:Chemboxes_which_contain_changes_to_verified_fields","/wiki/Category:Chemboxes_which_contain_changes_to_watched_fields","/w/index.php?title=Special:UserLogin&returnto=Tangeritin&type=signup","/w/index.php?title=Special:UserLogin&returnto=Tangeritin","/wiki/Tangeritin","/wiki/Talk:Tangeritin","#","/wiki/Tangeritin","/w/index.php?title=Tangeritin&action=edit","/w/index.php?title=Tangeritin&action=history","#","/w/index.php","//bits.wikimedia.org/static-1.22wmf10/skins/vector/images/search-ltr.png?303-4","/wiki/Main_Page","/wiki/Main_Page","/wiki/Portal:Contents","/wiki/Portal:Featured_content","/wiki/Portal:Current_events","/wiki/Special:Random","//donate.wikimedia.org/wiki/Special:FundraiserRedirector?utm_source=donate&utm_medium=sidebar&utm_campaign=C13_en.wikipedia.org&uselang=en","/wiki/Help:Contents","/wiki/Wikipedia:About","/wiki/Wikipedia:Community_portal","/wiki/Special:RecentChanges","//en.wikipedia.org/wiki/Wikipedia:Contact_us","/wiki/Special:WhatLinksHere/Tangeritin","/wiki/Special:RecentChangesLinked/Tangeritin","/wiki/Wikipedia:File_Upload_Wizard","/wiki/Special:SpecialPages","/w/index.php?title=Tangeritin&oldid=561930889","/w/index.php?title=Tangeritin&action=info","//www.wikidata.org/wiki/Q1748737","/w/index.php?title=Special:Cite&page=Tangeritin&id=561930889","/w/index.php?title=Special:Book&bookcmd=book_creator&referer=Tangeritin","/w/index.php?title=Special:Book&bookcmd=render_article&arttitle=Tangeritin&oldid=561930889&writer=rl","/w/index.php?title=Tangeritin&printable=yes","//ca.wikipedia.org/wiki/Tangeritina","//fa.wikipedia.org/wiki/%D8%AA%D8%A7%D9%86%DA%AF%D8%B1%DB%8C%D8%AA%DB%8C%D9%86","//fr.wikipedia.org/wiki/Tang%C3%A9ritine","//it.wikipedia.org/wiki/Tangeritina","#","//www.wikidata.org/wiki/Q1748737#sitelinks-wikipedia","//en.wikipedia.org/wiki/Wikipedia:Text_of_Creative_Commons_Attribution-ShareAlike_3.0_Unported_License","//creativecommons.org/licenses/by-sa/3.0/","//wikimediafoundation.org/wiki/Terms_of_Use","//wikimediafoundation.org/wiki/Privacy_policy","//www.wikimediafoundation.org/","//wikimediafoundation.org/wiki/Privacy_policy","/wiki/Wikipedia:About","/wiki/Wikipedia:General_disclaimer","//en.wikipedia.org/wiki/Wikipedia:Contact_us","//en.m.wikipedia.org/wiki/Tangeritin","//wikimediafoundation.org/","//bits.wikimedia.org/images/wikimedia-button.png","//www.mediawiki.org/","//bits.wikimedia.org/static-1.22wmf10/skins/common/images/poweredby_mediawiki_88x31.png","//bits.wikimedia.org/en.wikipedia.org/load.php?debug=false&lang=en&modules=site&only=scripts&skin=vector&*"],"instances":[],"pdf":[],"categories":["O-Methylated flavones","Flavonoids found in Rutaceae"],"headings":["References"],"image":["//upload.wikimedia.org/wikipedia/commons/thumb/0/08/Tangeritin.svg/200px-Tangeritin.svg.png","//upload.wikimedia.org/wikipedia/en/thumb/f/fb/Yes_check.svg/7px-Yes_check.svg.png","//upload.wikimedia.org/wikipedia/en/thumb/f/fb/Yes_check.svg/7px-Yes_check.svg.png","//upload.wikimedia.org/wikipedia/commons/thumb/a/a2/X_mark.svg/7px-X_mark.svg.png","//upload.wikimedia.org/wikipedia/commons/thumb/a/a2/X_mark.svg/14px-X_mark.svg.png","//upload.wikimedia.org/wikipedia/en/thumb/f/fb/Yes_check.svg/10px-Yes_check.svg.png","//upload.wikimedia.org/wikipedia/commons/thumb/a/a2/X_mark.svg/10px-X_mark.svg.png","//en.wikipedia.org/w/index.php?title=Special:CentralAutoLogin/start&type=1x1&from=enwiki","//bits.wikimedia.org/static-1.22wmf10/skins/vector/images/search-ltr.png?303-4","//bits.wikimedia.org/images/wikimedia-button.png","//bits.wikimedia.org/static-1.22wmf10/skins/common/images/poweredby_mediawiki_88x31.png"],"tags":[],"members":[],"related":["O-methylated_flavone","Tangerine","Citrus","Parkinson's_disease","Apoptosis","Gap_junction","Cell_signaling","Tamoxifen"]}