{"cursor":"2661","size":15,"audio":[],"currentlang":"en","article":"{{chembox\n| verifiedrevid = 470603455 Reference =\n| [http://physchem.ox.ac.uk/MSDS/TE/tetrabutyltin.html Tetrabutyltin\n| MSDS] ImageFile = Tetrabutyltin.png ImageSize = 200px IUPACName =\n| tetrabutyltin, tetrabutylstannane OtherNames = Tetra-n-butyltin Tetra-n-\n| butylstannane Section1 = {{Chembox Identifiers ChemSpiderID_Ref = ChemSpiderID\n| = 14370 InChI = 1/4C4H9.Sn/c4*1-3-4-2;/h4*1,3-4H2,2H3;/rC16H36Sn/c1-5-9-13-17(14-10-6-2,15-\n| 11-7-3)16-12-8-4/h5-16H2,1-4H3 InChIKey = AFCAKJKUYFLYFK-HBOYHTFSAP\n| StdInChI_Ref = StdInChI = 1S/4C4H9.Sn/c4*1-3-4-2;/h4*1,3-4H2,2H3;\n| StdInChIKey_Ref = StdInChIKey = AFCAKJKUYFLYFK-UHFFFAOYSA-N CASNo_Ref = CASNo\n| = 1461-25-2 PubChem = 15098 SMILES = CCCC[Sn](CCCC)(CCCC)CCCC\n}}\n| Section2 = {{Chembox Properties Formula = C 16 H36 Sn\n| MolarMass = 347.147 g/mol Appearance = Colourless liquid Density = MeltingPt =\n| -97 °C BoilingPt = Solubility =\n| insoluble http://www.gelest.com/goods/pdf/Library/13Tin.pdf\n| SolubleOther = non-polar\n| solvents http://www.gelest.com/goods/pdf/Library/13Tin.pdf such as\n| benzene, ether, or THF\n}}\n| Section3 = {{Chembox Hazards MainHazards = FlashPt = 107 °C Autoignition =\n}} }}\n\n'Tetrabutyltin' (also tetra-n-butyltin and tetra-n-butylstannane) is a stable\norganotin compound and combustible, colourless liquid at room temperature. It is\nincompatible with strong oxidizing agents. It has the molecular formula\nC 16 H36 Sn. Sometimes the abbreviation SnBu 4 and\nTTBT are used.\n\nTetrabutyltin is the starting material of the tributyltin and dibutyltin\ncompounds. It is produced by the reaction of tin(IV) chloride with 1-\nchlorobutane. This reaction involves either the Grignard reaction, the Wurtz\nreaction, or butyl aluminium compounds. Pure SnBu 4 can be mixed with\ntin(IV) chloride to form tributyltin chloride and dibutyltin chloride. These tin\ncompounds are starting materials for a wide range of organotin compounds used as\nstabilizers for PVC, biocides, fungicides, and anti-biofouling\nagents. {{cite journal\n | journal = Applied Geochemistry volume = 16 year = 2001 pages = 719–743 doi =\n | 10.1016/S0883-2927(00)00067-6 title = Organotin compounds in the environment\n | — an overview author = Hoch, M.|issue=s 7–8}}\n","linknr":129,"url":"Tetrabutyltin","recorded":1374961958,"links":["/w/index.php?title=Tetrabutyltin&action=edit","/w/index.php?title=Tetrabutyltin&action=edit","//bits.wikimedia.org/favicon/wikipedia.ico","/w/opensearch_desc.php","//en.wikipedia.org/w/api.php?action=rsd","//creativecommons.org/licenses/by-sa/3.0/","/w/index.php?title=Special:RecentChanges&feed=atom","//bits.wikimedia.org/en.wikipedia.org/load.php?debug=false&lang=en&modules=ext.gadget.DRN-wizard%2CReferenceTooltips%2Ccharinsert%2Cteahouse%7Cext.rtlcite%2Cwikihiero%7Cext.uls.nojs%7Cmediawiki.legacy.commonPrint%2Cshared%7Cmw.PopUpMediaTransform%7Cskins.vector&only=styles&skin=vector&*","//bits.wikimedia.org/en.wikipedia.org/load.php?debug=false&lang=en&modules=site&only=styles&skin=vector&*","//bits.wikimedia.org/en.wikipedia.org/load.php?debug=false&lang=en&modules=startup&only=scripts&skin=vector&*","//bits.wikimedia.org/geoiplookup","//meta.wikimedia.org","#mw-navigation","#p-search","#cite_note-1","/wiki/File:Tetrabutyltin.png","//upload.wikimedia.org/wikipedia/commons/thumb/d/d8/Tetrabutyltin.png/200px-Tetrabutyltin.png","/wiki/International_Union_of_Pure_and_Applied_Chemistry_nomenclature","/wiki/CAS_registry_number","http://www.commonchemistry.org/ChemicalDetail.aspx?ref=1461-25-2","//upload.wikimedia.org/wikipedia/en/thumb/f/fb/Yes_check.svg/7px-Yes_check.svg.png","/wiki/PubChem","http://pubchem.ncbi.nlm.nih.gov/summary/summary.cgi?cid=15098","/wiki/ChemSpider","http://www.chemspider.com/14370","//upload.wikimedia.org/wikipedia/en/thumb/f/fb/Yes_check.svg/7px-Yes_check.svg.png","/wiki/Jmol","http://chemapps.stolaf.edu/jmol/jmol.php?model=CCCC%5BSn%5D%28CCCC%29%28CCCC%29CCCC","/wiki/Simplified_molecular-input_line-entry_system","/wiki/International_Chemical_Identifier","//upload.wikimedia.org/wikipedia/en/thumb/f/fb/Yes_check.svg/7px-Yes_check.svg.png","//upload.wikimedia.org/wikipedia/en/thumb/f/fb/Yes_check.svg/7px-Yes_check.svg.png","/wiki/Chemical_formula","/wiki/Molar_mass","/wiki/Melting_point","/wiki/Solubility","/wiki/Water","#cite_note-2","/wiki/Solubility","#cite_note-3","/wiki/Tetrahydrofuran","/wiki/Flash_point","//upload.wikimedia.org/wikipedia/en/thumb/f/fb/Yes_check.svg/14px-Yes_check.svg.png","//en.wikipedia.org/w/index.php?title=Special:ComparePages&rev1=470603455&page2=Tetrabutyltin","/wiki/Wikipedia:WikiProject_Chemicals/Chembox_validation","//upload.wikimedia.org/wikipedia/en/thumb/f/fb/Yes_check.svg/10px-Yes_check.svg.png","//upload.wikimedia.org/wikipedia/commons/thumb/a/a2/X_mark.svg/10px-X_mark.svg.png","/wiki/Standard_state","/wiki/Wikipedia:Chemical_infobox#References","/wiki/Organotin","/wiki/Oxidizing_agent","/wiki/Molecular_formula","/wiki/Tributyltin","/wiki/Tin(IV)_chloride","/wiki/1-chlorobutane","/wiki/Grignard_reaction","/wiki/Wurtz_reaction","/wiki/PVC","/wiki/Biocides","/wiki/Fungicides","/wiki/Biofouling","#cite_note-4","/w/index.php?title=Tetrabutyltin&action=edit&section=1","#cite_ref-1","http://physchem.ox.ac.uk/MSDS/TE/tetrabutyltin.html","#cite_ref-2","http://www.gelest.com/goods/pdf/Library/13Tin.pdf","#cite_ref-3","http://www.gelest.com/goods/pdf/Library/13Tin.pdf","#cite_ref-4","/wiki/Digital_object_identifier","http://dx.doi.org/10.1016%2FS0883-2927%2800%2900067-6","//en.wikipedia.org/w/index.php?title=Special:CentralAutoLogin/start&type=1x1&from=enwiki","http://en.wikipedia.org/w/index.php?title=Tetrabutyltin&oldid=544269085","/wiki/Help:Categories","/wiki/Category:Organotin_compounds","/w/index.php?title=Special:UserLogin&returnto=Tetrabutyltin&type=signup","/w/index.php?title=Special:UserLogin&returnto=Tetrabutyltin","/wiki/Tetrabutyltin","/wiki/Talk:Tetrabutyltin","#","/wiki/Tetrabutyltin","/w/index.php?title=Tetrabutyltin&action=edit","/w/index.php?title=Tetrabutyltin&action=history","#","/w/index.php","//bits.wikimedia.org/static-1.22wmf11/skins/vector/images/search-ltr.png?303-4","/wiki/Main_Page","/wiki/Main_Page","/wiki/Portal:Contents","/wiki/Portal:Featured_content","/wiki/Portal:Current_events","/wiki/Special:Random","//donate.wikimedia.org/wiki/Special:FundraiserRedirector?utm_source=donate&utm_medium=sidebar&utm_campaign=C13_en.wikipedia.org&uselang=en","/wiki/Help:Contents","/wiki/Wikipedia:About","/wiki/Wikipedia:Community_portal","/wiki/Special:RecentChanges","//en.wikipedia.org/wiki/Wikipedia:Contact_us","/wiki/Special:WhatLinksHere/Tetrabutyltin","/wiki/Special:RecentChangesLinked/Tetrabutyltin","/wiki/Wikipedia:File_Upload_Wizard","/wiki/Special:SpecialPages","/w/index.php?title=Tetrabutyltin&oldid=544269085","/w/index.php?title=Tetrabutyltin&action=info","//www.wikidata.org/wiki/Q425214","/w/index.php?title=Special:Cite&page=Tetrabutyltin&id=544269085","/w/index.php?title=Special:Book&bookcmd=book_creator&referer=Tetrabutyltin","/w/index.php?title=Special:Book&bookcmd=render_article&arttitle=Tetrabutyltin&oldid=544269085&writer=rl","/w/index.php?title=Tetrabutyltin&printable=yes","//cs.wikipedia.org/wiki/Tetrabutylc%C3%ADn","//de.wikipedia.org/wiki/Tetrabutylzinn","//fr.wikipedia.org/wiki/T%C3%A9trabutyl%C3%A9tain","#","//www.wikidata.org/wiki/Q425214#sitelinks-wikipedia","//en.wikipedia.org/wiki/Wikipedia:Text_of_Creative_Commons_Attribution-ShareAlike_3.0_Unported_License","//creativecommons.org/licenses/by-sa/3.0/","//wikimediafoundation.org/wiki/Terms_of_Use","//wikimediafoundation.org/wiki/Privacy_policy","//www.wikimediafoundation.org/","//wikimediafoundation.org/wiki/Privacy_policy","/wiki/Wikipedia:About","/wiki/Wikipedia:General_disclaimer","//en.wikipedia.org/wiki/Wikipedia:Contact_us","//en.m.wikipedia.org/wiki/Tetrabutyltin","//wikimediafoundation.org/","//bits.wikimedia.org/images/wikimedia-button.png","//www.mediawiki.org/","//bits.wikimedia.org/static-1.22wmf11/skins/common/images/poweredby_mediawiki_88x31.png","//bits.wikimedia.org/en.wikipedia.org/load.php?debug=false&lang=en&modules=site&only=scripts&skin=vector&*"],"instances":[],"pdf":["http://www.gelest.com/goods/pdf/Library/13Tin.pdf","http://www.gelest.com/goods/pdf/Library/13Tin.pdf"],"categories":["Organotin compounds"],"headings":["References"],"image":["//upload.wikimedia.org/wikipedia/commons/thumb/d/d8/Tetrabutyltin.png/200px-Tetrabutyltin.png","//upload.wikimedia.org/wikipedia/en/thumb/f/fb/Yes_check.svg/7px-Yes_check.svg.png","//upload.wikimedia.org/wikipedia/en/thumb/f/fb/Yes_check.svg/7px-Yes_check.svg.png","//upload.wikimedia.org/wikipedia/en/thumb/f/fb/Yes_check.svg/7px-Yes_check.svg.png","//upload.wikimedia.org/wikipedia/en/thumb/f/fb/Yes_check.svg/7px-Yes_check.svg.png","//upload.wikimedia.org/wikipedia/en/thumb/f/fb/Yes_check.svg/14px-Yes_check.svg.png","//upload.wikimedia.org/wikipedia/en/thumb/f/fb/Yes_check.svg/10px-Yes_check.svg.png","//upload.wikimedia.org/wikipedia/commons/thumb/a/a2/X_mark.svg/10px-X_mark.svg.png","//en.wikipedia.org/w/index.php?title=Special:CentralAutoLogin/start&type=1x1&from=enwiki","//bits.wikimedia.org/static-1.22wmf11/skins/vector/images/search-ltr.png?303-4","//bits.wikimedia.org/images/wikimedia-button.png","//bits.wikimedia.org/static-1.22wmf11/skins/common/images/poweredby_mediawiki_88x31.png"],"tags":[["tin(iv_chloride"]],"members":[],"related":["Tetrahydrofuran","Organotin","Oxidizing_agent","Molecular_formula","Tributyltin","Tin(IV)_chloride","1-chlorobutane","Grignard_reaction","Wurtz_reaction","PVC","Biocides","Fungicides","Biofouling"]}