{"cursor":"3162","size":15,"audio":[],"currentlang":"en","article":"{{Chembox\n| verifiedrevid = 449803205 IUPACName = Tetraethyltin SystematicName =  OtherNames =\n| Tetraethyl tin ImageFile1 = Tetraethyltin.svg ImageSize1 = 180px ImageFile2 =\n| Tetraethyltin-3D-spacefill.png ImageSize2 = 180px Section1 = {{Chembox\n| Identifiers Abbreviations = TET CASNo = 597-64-8 CASNo_Ref = PubChem = 11704\n| PubChem_Ref = ChemSpiderID = 11212 ChemSpiderID_Ref = EINECS = 209-906-2\n| UNNumber = 3384 MeSHName = Tetraethyltin SMILES = CC[Sn](CC)(CC)CC StdInChI =\n| 1S/4C2H5.Sn/c4*1-2;/h4*1H2,2H3; StdInChI_Ref = StdInChIKey = RWWNQEOPUOCKGR-UHFFFAOYSA-\n| N StdInChIKey_Ref =\n}}\n| Section2 = {{Chembox Properties C = 8 H = 20 Sn = 1 ExactMass = 236.058697211\n| g mol -1 Appearance = Colourless liquid Density = 1.187 g cm -\n| 3 MeltingPtC = -112 BoilingPtC = 181}} Section3 = {{Chembox Hazards\n| EUClass = RPhrases = SPhrases = , , , , , NFPA-H = 3 NFPA-F = 2 NFPA-R = 3\n| FlashPt = 53 °C}} Section4 = {{Chembox Related Function = Tetraalkylstannanes\n| OtherFunctn = Tetrabutyltin\nTetramethyltin\n|  OtherCpds = Tetraethylgermanium\nTetraethyllead}} }} 'Tetraethyltin' or 'tetraethyl tin' is a chemical compound\nwith the formula and molecular structure\n(CH 3CH 2) 4Sn, that is, a tin atom attached to\nfour ethyl groups. It is an important example of an organotin compound, often\nabbreviated as 'TET'.\n\nTetraethyltin is a colourless flammable liquid, soluble in diethyl ether and\ninsoluble in water, that freezes at -112°C and boils at 181°C. SAFC corp, [http://www.safcglobal.com/safc-hitech/en-\nus/home/overview/products/tin/tetraethyltin.html tetraethyltin] catalog page.\nAccessed on 2011-01-18. It is used in the electronics industry.\n\nTetraethyltin can be obtained by reacting ethylmagnesium bromide with tin(IV)\nchloride: G. J. M. Van Der Kerk and J. G. A. Luijten (1956),\n[http://www.orgsyn.org/orgsyn/orgsyn/prepContent.asp?prep=cv4p0881\n\"Tetraethyltin\"]. Organic Syntheses, volume 36, page 86; Coll. Vol. 4, p.881\n(1963) :SnCl 4 + 4 (C 2H 5)MgBr →\n(CH 3CH 2) 4Sn + 4 MgBrCl The same reaction can be\nused to obtain tetra-''n''-propyltin and tetra-''n''-butyltin.\n\nTetraethyltin is converted in the body to the more toxic triethyltin.\n","linknr":171,"url":"Tetraethyltin","recorded":1374961958,"links":["/w/index.php?title=Tetraethyltin&action=edit","/w/index.php?title=Tetraethyltin&action=edit","//bits.wikimedia.org/favicon/wikipedia.ico","/w/opensearch_desc.php","//en.wikipedia.org/w/api.php?action=rsd","//creativecommons.org/licenses/by-sa/3.0/","/w/index.php?title=Special:RecentChanges&feed=atom","//bits.wikimedia.org/en.wikipedia.org/load.php?debug=false&lang=en&modules=ext.gadget.DRN-wizard%2CReferenceTooltips%2Ccharinsert%2Cteahouse%7Cext.rtlcite%2Cwikihiero%7Cext.uls.nojs%7Cmediawiki.legacy.commonPrint%2Cshared%7Cmw.PopUpMediaTransform%7Cskins.vector&only=styles&skin=vector&*","//bits.wikimedia.org/en.wikipedia.org/load.php?debug=false&lang=en&modules=site&only=styles&skin=vector&*","//bits.wikimedia.org/en.wikipedia.org/load.php?debug=false&lang=en&modules=startup&only=scripts&skin=vector&*","//bits.wikimedia.org/geoiplookup","//meta.wikimedia.org","#mw-navigation","#p-search","/wiki/File:Tetraethyltin.svg","//upload.wikimedia.org/wikipedia/commons/thumb/1/1e/Tetraethyltin.svg/180px-Tetraethyltin.svg.png","/wiki/File:Tetraethyltin-3D-spacefill.png","//upload.wikimedia.org/wikipedia/commons/thumb/d/d3/Tetraethyltin-3D-spacefill.png/180px-Tetraethyltin-3D-spacefill.png","/wiki/International_Union_of_Pure_and_Applied_Chemistry_nomenclature","/wiki/CAS_registry_number","http://www.commonchemistry.org/ChemicalDetail.aspx?ref=597-64-8","//upload.wikimedia.org/wikipedia/en/thumb/f/fb/Yes_check.svg/7px-Yes_check.svg.png","/wiki/PubChem","http://pubchem.ncbi.nlm.nih.gov/summary/summary.cgi?cid=11704","/wiki/ChemSpider","http://www.chemspider.com/11212","//upload.wikimedia.org/wikipedia/en/thumb/f/fb/Yes_check.svg/7px-Yes_check.svg.png","/wiki/EC_number_(chemistry)","http://esis.jrc.ec.europa.eu/lib/einecs_IS_reponse.php?genre=ECNO&entree=209-906-2","/wiki/UN_number","/wiki/Medical_Subject_Headings","http://www.nlm.nih.gov/cgi/mesh/2007/MB_cgi?mode=&term=Tetraethyltin","/wiki/Jmol","http://chemapps.stolaf.edu/jmol/jmol.php?model=CC%5BSn%5D%28CC%29%28CC%29CC","/wiki/Simplified_molecular-input_line-entry_system","/wiki/International_Chemical_Identifier","//upload.wikimedia.org/wikipedia/en/thumb/f/fb/Yes_check.svg/7px-Yes_check.svg.png","//upload.wikimedia.org/wikipedia/en/thumb/f/fb/Yes_check.svg/7px-Yes_check.svg.png","/wiki/Molecular_formula","/wiki/Molar_mass","/wiki/Density","/wiki/Melting_point","/wiki/Boiling_point","/wiki/Dangerous_Substances_Directive_(67/548/EEC)","/wiki/File:Hazard_TT.svg","//upload.wikimedia.org/wikipedia/commons/thumb/8/86/Hazard_TT.svg/40px-Hazard_TT.svg.png","/wiki/File:Hazard_N.svg","//upload.wikimedia.org/wikipedia/commons/thumb/6/6a/Hazard_N.svg/40px-Hazard_N.svg.png","/wiki/List_of_R-phrases","/wiki/R26/27/28:_Very_toxic_by_inhalation,_in_contact_with_skin_and_if_swallowed","/wiki/R50/53:_Very_toxic_to_aquatic_organisms,_may_cause_long-term_adverse_effects_in_the_aquatic_environment","/wiki/List_of_S-phrases","/wiki/S26:_In_case_of_contact_with_eyes,_rinse_immediately_with_plenty_of_water_and_seek_medical_advice","/wiki/S27:_Take_off_immediately_all_contaminated_clothing","/wiki/S28:_After_contact_with_skin,_wash_immediately_with_plenty_of_..._(to_be_specified_by_the_manufacturer)","/wiki/S45:_In_case_of_accident_or_if_you_feel_unwell_seek_medical_advice_immediately_(show_the_label_where_possible)","/wiki/S60:_This_material_and_its_container_must_be_disposed_of_as_hazardous_waste","/wiki/S61:_Avoid_release_to_the_environment._Refer_to_special_instructions/safety_data_sheet","/wiki/NFPA_704","/wiki/File:NFPA_704.svg","//upload.wikimedia.org/wikipedia/commons/thumb/6/6f/NFPA_704.svg/75px-NFPA_704.svg.png","/wiki/Flash_point","/wiki/Tetrabutyltin","/wiki/Tetramethyltin","/wiki/Tetraethylgermanium","/wiki/Tetraethyllead","//upload.wikimedia.org/wikipedia/en/thumb/f/fb/Yes_check.svg/14px-Yes_check.svg.png","//en.wikipedia.org/w/index.php?title=Special:ComparePages&rev1=449803205&page2=Tetraethyltin","/wiki/Wikipedia:WikiProject_Chemicals/Chembox_validation","//upload.wikimedia.org/wikipedia/en/thumb/f/fb/Yes_check.svg/10px-Yes_check.svg.png","//upload.wikimedia.org/wikipedia/commons/thumb/a/a2/X_mark.svg/10px-X_mark.svg.png","/wiki/Standard_state","/wiki/Wikipedia:Chemical_infobox#References","/wiki/Chemical_compound","/wiki/Tin","/wiki/Ethyl_groups","/wiki/Organotin_chemistry","/wiki/Diethyl_ether","#cite_note-kerk-1","#cite_note-safc-2","/wiki/Ethylmagnesium_bromide","/wiki/Tin(IV)_chloride","#cite_note-kerk-1","/w/index.php?title=Tetra-n-propyltin&action=edit&redlink=1","/wiki/Tetra-n-butyltin","#cite_note-kerk-1","/w/index.php?title=Triethyltin&action=edit&redlink=1","#cite_note-cremer-3","/w/index.php?title=Tetraethyltin&action=edit&section=1","/wiki/Tetraethyllead","/wiki/Tetraethylgermanium","/w/index.php?title=Tetraethyltin&action=edit&section=2","#cite_ref-kerk_1-0","#cite_ref-kerk_1-1","#cite_ref-kerk_1-2","http://www.orgsyn.org/orgsyn/orgsyn/prepContent.asp?prep=cv4p0881","#cite_ref-safc_2-0","http://www.safcglobal.com/safc-hitech/en-us/home/overview/products/tin/tetraethyltin.html","#cite_ref-cremer_3-0","/wiki/Digital_object_identifier","http://dx.doi.org/10.1111%2Fj.1365-2052.1975.tb01351.x","/wiki/PubMed_Identifier","//www.ncbi.nlm.nih.gov/pubmed/1200418","//en.wikipedia.org/w/index.php?title=Template:Cite_pmid/1200418&action=edit&editintro=Template:Cite_pmid/editintro2","/wiki/File:Formamide-3D-vdW.png","//upload.wikimedia.org/wikipedia/commons/thumb/c/cf/Formamide-3D-vdW.png/30px-Formamide-3D-vdW.png","/wiki/Organic_compound","/wiki/Wikipedia:Stub","//en.wikipedia.org/w/index.php?title=Tetraethyltin&action=edit","/wiki/Template:Organic-compound-stub","/wiki/Template_talk:Organic-compound-stub","//en.wikipedia.org/w/index.php?title=Template:Organic-compound-stub&action=edit","//en.wikipedia.org/w/index.php?title=Special:CentralAutoLogin/start&type=1x1&from=enwiki","http://en.wikipedia.org/w/index.php?title=Tetraethyltin&oldid=541589141","/wiki/Help:Categories","/wiki/Category:Coordination_compounds","/wiki/Category:Organotin_compounds","/wiki/Category:Organic_compound_stubs","/w/index.php?title=Special:UserLogin&returnto=Tetraethyltin&type=signup","/w/index.php?title=Special:UserLogin&returnto=Tetraethyltin","/wiki/Tetraethyltin","/wiki/Talk:Tetraethyltin","#","/wiki/Tetraethyltin","/w/index.php?title=Tetraethyltin&action=edit","/w/index.php?title=Tetraethyltin&action=history","#","/w/index.php","//bits.wikimedia.org/static-1.22wmf11/skins/vector/images/search-ltr.png?303-4","/wiki/Main_Page","/wiki/Main_Page","/wiki/Portal:Contents","/wiki/Portal:Featured_content","/wiki/Portal:Current_events","/wiki/Special:Random","//donate.wikimedia.org/wiki/Special:FundraiserRedirector?utm_source=donate&utm_medium=sidebar&utm_campaign=C13_en.wikipedia.org&uselang=en","/wiki/Help:Contents","/wiki/Wikipedia:About","/wiki/Wikipedia:Community_portal","/wiki/Special:RecentChanges","//en.wikipedia.org/wiki/Wikipedia:Contact_us","/wiki/Special:WhatLinksHere/Tetraethyltin","/wiki/Special:RecentChangesLinked/Tetraethyltin","/wiki/Wikipedia:File_Upload_Wizard","/wiki/Special:SpecialPages","/w/index.php?title=Tetraethyltin&oldid=541589141","/w/index.php?title=Tetraethyltin&action=info","//www.wikidata.org/wiki/Q186600","/w/index.php?title=Special:Cite&page=Tetraethyltin&id=541589141","/w/index.php?title=Special:Book&bookcmd=book_creator&referer=Tetraethyltin","/w/index.php?title=Special:Book&bookcmd=render_article&arttitle=Tetraethyltin&oldid=541589141&writer=rl","/w/index.php?title=Tetraethyltin&printable=yes","//de.wikipedia.org/wiki/Tetraethylzinn","//fa.wikipedia.org/wiki/%D8%AA%D8%AA%D8%B1%D8%A7%D8%A7%D8%AA%DB%8C%D9%84%E2%80%8C%D9%82%D9%84%D8%B9","//pt.wikipedia.org/wiki/Tetraetilestanho","#","//www.wikidata.org/wiki/Q186600#sitelinks-wikipedia","//en.wikipedia.org/wiki/Wikipedia:Text_of_Creative_Commons_Attribution-ShareAlike_3.0_Unported_License","//creativecommons.org/licenses/by-sa/3.0/","//wikimediafoundation.org/wiki/Terms_of_Use","//wikimediafoundation.org/wiki/Privacy_policy","//www.wikimediafoundation.org/","//wikimediafoundation.org/wiki/Privacy_policy","/wiki/Wikipedia:About","/wiki/Wikipedia:General_disclaimer","//en.wikipedia.org/wiki/Wikipedia:Contact_us","//en.m.wikipedia.org/wiki/Tetraethyltin","//wikimediafoundation.org/","//bits.wikimedia.org/images/wikimedia-button.png","//www.mediawiki.org/","//bits.wikimedia.org/static-1.22wmf11/skins/common/images/poweredby_mediawiki_88x31.png","//bits.wikimedia.org/en.wikipedia.org/load.php?debug=false&lang=en&modules=site&only=scripts&skin=vector&*"],"instances":[],"pdf":[],"categories":["Coordination compounds","Organotin compounds"],"headings":["See also","References"],"image":["//upload.wikimedia.org/wikipedia/commons/thumb/1/1e/Tetraethyltin.svg/180px-Tetraethyltin.svg.png","//upload.wikimedia.org/wikipedia/commons/thumb/d/d3/Tetraethyltin-3D-spacefill.png/180px-Tetraethyltin-3D-spacefill.png","//upload.wikimedia.org/wikipedia/en/thumb/f/fb/Yes_check.svg/7px-Yes_check.svg.png","//upload.wikimedia.org/wikipedia/en/thumb/f/fb/Yes_check.svg/7px-Yes_check.svg.png","//upload.wikimedia.org/wikipedia/en/thumb/f/fb/Yes_check.svg/7px-Yes_check.svg.png","//upload.wikimedia.org/wikipedia/en/thumb/f/fb/Yes_check.svg/7px-Yes_check.svg.png","//upload.wikimedia.org/wikipedia/commons/thumb/8/86/Hazard_TT.svg/40px-Hazard_TT.svg.png","//upload.wikimedia.org/wikipedia/commons/thumb/6/6a/Hazard_N.svg/40px-Hazard_N.svg.png","//upload.wikimedia.org/wikipedia/commons/thumb/6/6f/NFPA_704.svg/75px-NFPA_704.svg.png","//upload.wikimedia.org/wikipedia/en/thumb/f/fb/Yes_check.svg/14px-Yes_check.svg.png","//upload.wikimedia.org/wikipedia/en/thumb/f/fb/Yes_check.svg/10px-Yes_check.svg.png","//upload.wikimedia.org/wikipedia/commons/thumb/a/a2/X_mark.svg/10px-X_mark.svg.png","//upload.wikimedia.org/wikipedia/commons/thumb/c/cf/Formamide-3D-vdW.png/30px-Formamide-3D-vdW.png","//en.wikipedia.org/w/index.php?title=Special:CentralAutoLogin/start&type=1x1&from=enwiki","//bits.wikimedia.org/static-1.22wmf11/skins/vector/images/search-ltr.png?303-4","//bits.wikimedia.org/images/wikimedia-button.png","//bits.wikimedia.org/static-1.22wmf11/skins/common/images/poweredby_mediawiki_88x31.png"],"tags":[["tin(iv_chloride"]],"members":[],"related":["Tetrabutyltin","Tetramethyltin","Tetraethylgermanium","Tetraethyllead","Chemical_compound","Tin","Ethyl_groups","Organotin_chemistry","Diethyl_ether","Ethylmagnesium_bromide","Tin(IV)_chloride","Tetra-n-propyltin","Tetra-n-butyltin","Triethyltin","Tetraethyllead","Tetraethylgermanium"]}