{"cursor":"2563","size":15,"audio":[],"currentlang":"en","article":"{{Chembox\n| verifiedrevid = 401622463 ImageFile = Tetraethylgermanium.svg ImageFile_Ref =\n| ImageSize = 121 ImageName = Structural formula of tetraethylgermanium\n| IUPACName = Tetraethylgermanium SystematicName =  Section1 = {{Chembox\n| Identifiers Abbreviations = TEG CASNo = 597-63-7 CASNo_Ref = PubChem = 11703\n| PubChem_Ref = ChemSpiderID = 11211 ChemSpiderID_Ref = EINECS = 209-905-7\n| UNNumber = 1993 RTECS = LY5290000 SMILES = CC[Ge](CC)(CC)CC StdInChI = 1S/C8H20Ge/c1-5-9(6-2,7-3)8-4/h5-8H2,1-\n| 4H3 StdInChI_Ref = InChI = 1/C8H20Ge/c1-5-9(6-2,7-3)8-4/h5-8H2,1-4H3\n| StdInChIKey = QQXSEZVCKAEYQJ-UHFFFAOYSA-N StdInChIKey_Ref = InChIKey = QQXSEZVCKAEYQJ-\n| UHFFFAOYAH}} Section2 = {{Chembox Properties C = 8 H = 20 Ge = 1 ExactMass =\n| 190.077678853 g mol -1 Appearance = Colourless liquid Density =\n| 0.998 g cm -3 BoilingPtCL = 163 BoilingPtCH = 165}} Section3 =\n| {{Chembox Hazards EUClass = RPhrases = , , SPhrases = , , NFPA-H = 2 NFPA-F =\n| 3 NFPA-R = 2 FlashPt = 35 °C}} Section4 = {{Chembox Related OtherCpds =\n| Tetraethyltin\nTetraethyllead}} }} 'Tetraethylgermanium' (common name 'tetraethyl germanium'),\nabbreviated TEG, is an organogermanium compound with the formula\n(CH 3CH 2) 4Ge. Tetraethylgermanium is an\nimportant chemical compound used in vapour deposition of germanium.\n","linknr":137,"url":"Tetraethylgermanium","recorded":1374961957,"links":["/w/index.php?title=Tetraethylgermanium&action=edit","/w/index.php?title=Tetraethylgermanium&action=edit","//bits.wikimedia.org/favicon/wikipedia.ico","/w/opensearch_desc.php","//en.wikipedia.org/w/api.php?action=rsd","//creativecommons.org/licenses/by-sa/3.0/","/w/index.php?title=Special:RecentChanges&feed=atom","//bits.wikimedia.org/en.wikipedia.org/load.php?debug=false&lang=en&modules=ext.gadget.DRN-wizard%2CReferenceTooltips%2Ccharinsert%2Cteahouse%7Cext.rtlcite%2Cwikihiero%7Cext.uls.nojs%7Cmediawiki.legacy.commonPrint%2Cshared%7Cmw.PopUpMediaTransform%7Cskins.vector&only=styles&skin=vector&*","//bits.wikimedia.org/en.wikipedia.org/load.php?debug=false&lang=en&modules=site&only=styles&skin=vector&*","//bits.wikimedia.org/en.wikipedia.org/load.php?debug=false&lang=en&modules=startup&only=scripts&skin=vector&*","//bits.wikimedia.org/geoiplookup","//meta.wikimedia.org","#mw-navigation","#p-search","/wiki/File:Tetraethylgermanium.svg","//upload.wikimedia.org/wikipedia/commons/thumb/2/24/Tetraethylgermanium.svg/121px-Tetraethylgermanium.svg.png","/wiki/International_Union_of_Pure_and_Applied_Chemistry_nomenclature","/wiki/CAS_registry_number","http://www.commonchemistry.org/ChemicalDetail.aspx?ref=597-63-7","//upload.wikimedia.org/wikipedia/en/thumb/f/fb/Yes_check.svg/7px-Yes_check.svg.png","/wiki/PubChem","http://pubchem.ncbi.nlm.nih.gov/summary/summary.cgi?cid=11703","/wiki/ChemSpider","http://www.chemspider.com/11211","//upload.wikimedia.org/wikipedia/en/thumb/f/fb/Yes_check.svg/7px-Yes_check.svg.png","/wiki/EC_number_(chemistry)","http://esis.jrc.ec.europa.eu/lib/einecs_IS_reponse.php?genre=ECNO&entree=209-905-7","/wiki/UN_number","/wiki/RTECS","/wiki/Jmol","http://chemapps.stolaf.edu/jmol/jmol.php?model=CC%5BGe%5D%28CC%29%28CC%29CC","/wiki/Simplified_molecular-input_line-entry_system","/wiki/International_Chemical_Identifier","//upload.wikimedia.org/wikipedia/en/thumb/f/fb/Yes_check.svg/7px-Yes_check.svg.png","//upload.wikimedia.org/wikipedia/en/thumb/f/fb/Yes_check.svg/7px-Yes_check.svg.png","/wiki/Molecular_formula","/wiki/Molar_mass","/wiki/Density","/wiki/Boiling_point","/wiki/Dangerous_Substances_Directive_(67/548/EEC)","/wiki/File:Hazard_X.svg","//upload.wikimedia.org/wikipedia/commons/thumb/e/ed/Hazard_X.svg/40px-Hazard_X.svg.png","/wiki/List_of_R-phrases","/wiki/R10:_Flammable","/wiki/R22:_Harmful_if_swallowed","/wiki/R36/37/38:_Irritating_to_eyes,_respiratory_system_and_skin","/wiki/List_of_S-phrases","/wiki/S16:_Keep_away_from_sources_of_ignition_-_No_smoking","/wiki/S26:_In_case_of_contact_with_eyes,_rinse_immediately_with_plenty_of_water_and_seek_medical_advice","/wiki/S36:_Wear_suitable_protective_clothing","/wiki/NFPA_704","/wiki/File:NFPA_704.svg","//upload.wikimedia.org/wikipedia/commons/thumb/6/6f/NFPA_704.svg/75px-NFPA_704.svg.png","/wiki/Flash_point","/wiki/Tetraethyltin","/wiki/Tetraethyllead","//upload.wikimedia.org/wikipedia/en/thumb/f/fb/Yes_check.svg/14px-Yes_check.svg.png","//en.wikipedia.org/w/index.php?title=Special:ComparePages&rev1=401622463&page2=Tetraethylgermanium","/wiki/Wikipedia:WikiProject_Chemicals/Chembox_validation","//upload.wikimedia.org/wikipedia/en/thumb/f/fb/Yes_check.svg/10px-Yes_check.svg.png","//upload.wikimedia.org/wikipedia/commons/thumb/a/a2/X_mark.svg/10px-X_mark.svg.png","/wiki/Standard_state","/wiki/Wikipedia:Chemical_infobox#References","/wiki/Organogermanium_compound","/wiki/Ethyl_group","/wiki/Germanium","/wiki/Chemical_compound","/w/index.php?title=Tetraethylgermanium&action=edit&section=1","/wiki/Clemens_Winkler","/wiki/Diethylzinc","/wiki/Germanium_tetrachloride","#cite_note-Winkle2-1","/w/index.php?title=Tetraethylgermanium&action=edit&section=2","#cite_ref-Winkle2_1-0","http://gallica.bnf.fr/ark:/12148/bpt6k90799n/f183.table","/wiki/Digital_object_identifier","http://dx.doi.org/10.1002%2Fprac.18870360119","/w/index.php?title=Tetraethylgermanium&action=edit&section=3","http://www.sigmaaldrich.com/catalog/search/ProductDetail?ProdNo=401706&Brand=ALDRICH","//en.wikipedia.org/w/index.php?title=Special:CentralAutoLogin/start&type=1x1&from=enwiki","http://en.wikipedia.org/w/index.php?title=Tetraethylgermanium&oldid=541450381","/wiki/Help:Categories","/wiki/Category:Organogermanium_compounds","/w/index.php?title=Special:UserLogin&returnto=Tetraethylgermanium&type=signup","/w/index.php?title=Special:UserLogin&returnto=Tetraethylgermanium","/wiki/Tetraethylgermanium","/wiki/Talk:Tetraethylgermanium","#","/wiki/Tetraethylgermanium","/w/index.php?title=Tetraethylgermanium&action=edit","/w/index.php?title=Tetraethylgermanium&action=history","#","/w/index.php","//bits.wikimedia.org/static-1.22wmf11/skins/vector/images/search-ltr.png?303-4","/wiki/Main_Page","/wiki/Main_Page","/wiki/Portal:Contents","/wiki/Portal:Featured_content","/wiki/Portal:Current_events","/wiki/Special:Random","//donate.wikimedia.org/wiki/Special:FundraiserRedirector?utm_source=donate&utm_medium=sidebar&utm_campaign=C13_en.wikipedia.org&uselang=en","/wiki/Help:Contents","/wiki/Wikipedia:About","/wiki/Wikipedia:Community_portal","/wiki/Special:RecentChanges","//en.wikipedia.org/wiki/Wikipedia:Contact_us","/wiki/Special:WhatLinksHere/Tetraethylgermanium","/wiki/Special:RecentChangesLinked/Tetraethylgermanium","/wiki/Wikipedia:File_Upload_Wizard","/wiki/Special:SpecialPages","/w/index.php?title=Tetraethylgermanium&oldid=541450381","/w/index.php?title=Tetraethylgermanium&action=info","//www.wikidata.org/wiki/Q2277172","/w/index.php?title=Special:Cite&page=Tetraethylgermanium&id=541450381","/w/index.php?title=Special:Book&bookcmd=book_creator&referer=Tetraethylgermanium","/w/index.php?title=Special:Book&bookcmd=render_article&arttitle=Tetraethylgermanium&oldid=541450381&writer=rl","/w/index.php?title=Tetraethylgermanium&printable=yes","//fa.wikipedia.org/wiki/%D8%AA%D8%AA%D8%B1%D8%A7%D8%A7%D8%AA%DB%8C%D9%84%E2%80%8C%DA%98%D8%B1%D9%85%D8%A7%D9%86%DB%8C%D9%85","//nl.wikipedia.org/wiki/Tetra-ethylgermanium","//ru.wikipedia.org/wiki/%D0%A2%D0%B5%D1%82%D1%80%D0%B0%D1%8D%D1%82%D0%B8%D0%BB%D0%B3%D0%B5%D1%80%D0%BC%D0%B0%D0%BD%D0%B8%D0%B9","//zh.wikipedia.org/wiki/%E5%9B%9B%E4%B9%99%E5%9F%BA%E9%94%97","#","//www.wikidata.org/wiki/Q2277172#sitelinks-wikipedia","//en.wikipedia.org/wiki/Wikipedia:Text_of_Creative_Commons_Attribution-ShareAlike_3.0_Unported_License","//creativecommons.org/licenses/by-sa/3.0/","//wikimediafoundation.org/wiki/Terms_of_Use","//wikimediafoundation.org/wiki/Privacy_policy","//www.wikimediafoundation.org/","//wikimediafoundation.org/wiki/Privacy_policy","/wiki/Wikipedia:About","/wiki/Wikipedia:General_disclaimer","//en.wikipedia.org/wiki/Wikipedia:Contact_us","//en.m.wikipedia.org/wiki/Tetraethylgermanium","//wikimediafoundation.org/","//bits.wikimedia.org/images/wikimedia-button.png","//www.mediawiki.org/","//bits.wikimedia.org/static-1.22wmf11/skins/common/images/poweredby_mediawiki_88x31.png","//bits.wikimedia.org/en.wikipedia.org/load.php?debug=false&lang=en&modules=site&only=scripts&skin=vector&*"],"instances":[],"pdf":[],"categories":["Organogermanium compounds"],"headings":["Synthesis","References","External links"],"image":["//upload.wikimedia.org/wikipedia/commons/thumb/2/24/Tetraethylgermanium.svg/121px-Tetraethylgermanium.svg.png","//upload.wikimedia.org/wikipedia/en/thumb/f/fb/Yes_check.svg/7px-Yes_check.svg.png","//upload.wikimedia.org/wikipedia/en/thumb/f/fb/Yes_check.svg/7px-Yes_check.svg.png","//upload.wikimedia.org/wikipedia/en/thumb/f/fb/Yes_check.svg/7px-Yes_check.svg.png","//upload.wikimedia.org/wikipedia/en/thumb/f/fb/Yes_check.svg/7px-Yes_check.svg.png","//upload.wikimedia.org/wikipedia/commons/thumb/e/ed/Hazard_X.svg/40px-Hazard_X.svg.png","//upload.wikimedia.org/wikipedia/commons/thumb/6/6f/NFPA_704.svg/75px-NFPA_704.svg.png","//upload.wikimedia.org/wikipedia/en/thumb/f/fb/Yes_check.svg/14px-Yes_check.svg.png","//upload.wikimedia.org/wikipedia/en/thumb/f/fb/Yes_check.svg/10px-Yes_check.svg.png","//upload.wikimedia.org/wikipedia/commons/thumb/a/a2/X_mark.svg/10px-X_mark.svg.png","//en.wikipedia.org/w/index.php?title=Special:CentralAutoLogin/start&type=1x1&from=enwiki","//bits.wikimedia.org/static-1.22wmf11/skins/vector/images/search-ltr.png?303-4","//bits.wikimedia.org/images/wikimedia-button.png","//bits.wikimedia.org/static-1.22wmf11/skins/common/images/poweredby_mediawiki_88x31.png"],"tags":[],"members":[],"related":["Tetraethyltin","Tetraethyllead","Organogermanium_compound","Ethyl_group","Germanium","Chemical_compound","Clemens_Winkler","Diethylzinc","Germanium_tetrachloride"]}