{"cursor":"4481","size":15,"audio":[],"currentlang":"en","article":"{{chembox\n| verifiedrevid = 360130922 Name = Triphenylphosphine dichloride ImageFile = Dichlorotriphenylphosphine-\n| 2D.png ImageSize = 150px ImageName = Structural formula ImageFileL1 = Dichlorotriphenylphosphine-molecular-from-xtal-1998-3D-\n| balls.png ImageSizeL1 = 150px ImageNameL1 = Ball-and-stick model ImageFileR1 =\n| Dichlorotriphenylphosphine-molecular-from-xtal-1998-3D-vdW.png ImageSizeR1 =\n| 150px ImageNameR1 = Space-filling model IUPACName = Dichlorotriphenyl-λ 5-\n| phosphane OtherNames =Dichlorotriphenylphosphorane Section1 = {{Chembox\n| Identifiers CASNo = 2526-64-9 RTECS =\n  }}\n| Section2 = {{Chembox Properties Formula =\n| C 18 H15 Cl 2P MolarMass = 333.19 g/mol\n| Appearance = Density = Solubility = MeltingPt = 176 °C, 85-100 °C e-EROS Encyclopedia of\n| Reagents for Organic Synthesis,  BoilingPt = RefractIndex =\n  }}\n| Section3 = {{Chembox Structure MolShape = Dipole =\n  }}\n| Section7 = {{Chembox Hazards ExternalMSDS = EUClass = FlashPt = RPhrases =\n| SPhrases = RSPhrases =\n  }}\n| Section8 = {{Chembox Related Function = OtherFunctn = OtherCpds =\n| Phosphoranes Triphenylphosphine Phosphorus trichloride Phosphorus\n| pentachloride Phosphorus halides Tetraphenylphosphonium chloride\n  }} }}\n\n'Triphenylphosphine dichloride', Ph 3PCl 2, is a\nchlorinating agent widely used in organic chemistry. Applications include the\nconversion of alcohols and ethers to alkyl chlorides, the cleavage of epoxides\nto vicinal dichlorides and the chlorination of carboxylic acids to acyl\nchlorides.\n","linknr":147,"url":"Triphenylphosphine_dichloride","recorded":1374963647,"links":["/w/index.php?title=Triphenylphosphine_dichloride&action=edit","/w/index.php?title=Triphenylphosphine_dichloride&action=edit","//bits.wikimedia.org/favicon/wikipedia.ico","/w/opensearch_desc.php","//en.wikipedia.org/w/api.php?action=rsd","//creativecommons.org/licenses/by-sa/3.0/","/w/index.php?title=Special:RecentChanges&feed=atom","//bits.wikimedia.org/en.wikipedia.org/load.php?debug=false&lang=en&modules=ext.gadget.DRN-wizard%2CReferenceTooltips%2Ccharinsert%2Cteahouse%7Cext.rtlcite%2Cwikihiero%7Cext.uls.nojs%7Cmediawiki.legacy.commonPrint%2Cshared%7Cmw.PopUpMediaTransform%7Cskins.vector&only=styles&skin=vector&*","//bits.wikimedia.org/en.wikipedia.org/load.php?debug=false&lang=en&modules=site&only=styles&skin=vector&*","//bits.wikimedia.org/en.wikipedia.org/load.php?debug=false&lang=en&modules=startup&only=scripts&skin=vector&*","//bits.wikimedia.org/geoiplookup","//meta.wikimedia.org","#mw-navigation","#p-search","/wiki/File:Dichlorotriphenylphosphine-2D.png","//upload.wikimedia.org/wikipedia/commons/thumb/8/84/Dichlorotriphenylphosphine-2D.png/150px-Dichlorotriphenylphosphine-2D.png","/wiki/File:Dichlorotriphenylphosphine-molecular-from-xtal-1998-3D-balls.png","//upload.wikimedia.org/wikipedia/commons/thumb/5/52/Dichlorotriphenylphosphine-molecular-from-xtal-1998-3D-balls.png/150px-Dichlorotriphenylphosphine-molecular-from-xtal-1998-3D-balls.png","/wiki/File:Dichlorotriphenylphosphine-molecular-from-xtal-1998-3D-vdW.png","//upload.wikimedia.org/wikipedia/commons/thumb/e/ec/Dichlorotriphenylphosphine-molecular-from-xtal-1998-3D-vdW.png/150px-Dichlorotriphenylphosphine-molecular-from-xtal-1998-3D-vdW.png","/wiki/International_Union_of_Pure_and_Applied_Chemistry_nomenclature","/wiki/CAS_registry_number","http://www.commonchemistry.org/ChemicalDetail.aspx?ref=2526-64-9","/wiki/Chemical_formula","/wiki/Molar_mass","/wiki/Melting_point","#cite_note-Grignard-1","#cite_note-e-EROS-2","/wiki/Phosphorane","/wiki/Triphenylphosphine","/wiki/Phosphorus_trichloride","/wiki/Phosphorus_pentachloride","/wiki/Phosphorus_halides","/wiki/Tetraphenylphosphonium_chloride","//upload.wikimedia.org/wikipedia/en/thumb/f/fb/Yes_check.svg/14px-Yes_check.svg.png","//en.wikipedia.org/w/index.php?title=Special:ComparePages&rev1=360130922&page2=Triphenylphosphine+dichloride","/wiki/Wikipedia:WikiProject_Chemicals/Chembox_validation","//upload.wikimedia.org/wikipedia/en/thumb/f/fb/Yes_check.svg/10px-Yes_check.svg.png","//upload.wikimedia.org/wikipedia/commons/thumb/a/a2/X_mark.svg/10px-X_mark.svg.png","/wiki/Standard_state","/wiki/Wikipedia:Chemical_infobox#References","/wiki/Halogenation","/wiki/Alcohol","/wiki/Ether","/wiki/Alkyl_chloride","/wiki/Epoxide","/wiki/Carboxylic_acid","/wiki/Acyl_chloride","#cite_note-e-EROS-2","/w/index.php?title=Triphenylphosphine_dichloride&action=edit&section=1","/wiki/Chemical_polarity","/wiki/Acetonitrile","/wiki/Dichloromethane","/wiki/Phosphonium_salt","#cite_note-Godfrey_1996-3","/wiki/Diethyl_ether","/wiki/Trigonal_bipyramidal_molecular_geometry","#cite_note-Godfrey_1998-4","#cite_note-Godfrey_1996-3","/wiki/File:Chlorotriphenylphosphonium-chloride-2D.png","//upload.wikimedia.org/wikipedia/commons/thumb/8/81/Chlorotriphenylphosphonium-chloride-2D.png/120px-Chlorotriphenylphosphonium-chloride-2D.png","/wiki/File:Chlorotriphenylphosphonium-chloride-DCM-solvate-from-xtal-3D-balls.png","//upload.wikimedia.org/wikipedia/commons/thumb/2/2b/Chlorotriphenylphosphonium-chloride-DCM-solvate-from-xtal-3D-balls.png/120px-Chlorotriphenylphosphonium-chloride-DCM-solvate-from-xtal-3D-balls.png","/wiki/File:Chlorotriphenylphosphonium-chloride-DCM-solvate-from-xtal-3D-vdW.png","//upload.wikimedia.org/wikipedia/commons/thumb/8/8b/Chlorotriphenylphosphonium-chloride-DCM-solvate-from-xtal-3D-vdW.png/120px-Chlorotriphenylphosphonium-chloride-DCM-solvate-from-xtal-3D-vdW.png","/w/index.php?title=Triphenylphosphine_dichloride&action=edit&section=2","/wiki/Triphenylphosphine","/wiki/Stoichiometry","#cite_note-e-EROS-2","/wiki/Triphenylphosphine_oxide","/wiki/Phosphorus_trichloride","#cite_note-Grignard-1","/w/index.php?title=Triphenylphosphine_dichloride&action=edit&section=3","#cite_ref-Grignard_1-0","#cite_ref-Grignard_1-1","/wiki/Victor_Grignard","/wiki/Comptes_rendus_de_l%27Acad%C3%A9mie_des_sciences","#cite_ref-e-EROS_2-0","#cite_ref-e-EROS_2-1","#cite_ref-e-EROS_2-2","/wiki/Encyclopedia_of_Reagents_for_Organic_Synthesis","/wiki/Digital_object_identifier","http://dx.doi.org/10.1002%2F047084289X.rt371","#cite_ref-Godfrey_1996_3-0","#cite_ref-Godfrey_1996_3-1","/wiki/Chemical_Communications","/wiki/Digital_object_identifier","http://dx.doi.org/10.1039%2FCC9960002521","#cite_ref-Godfrey_1998_4-0","/wiki/Digital_object_identifier","http://dx.doi.org/10.1039%2Fa800820e","//en.wikipedia.org/w/index.php?title=Special:CentralAutoLogin/start&type=1x1&from=enwiki","http://en.wikipedia.org/w/index.php?title=Triphenylphosphine_dichloride&oldid=545853348","/wiki/Help:Categories","/wiki/Category:Reagents_for_organic_chemistry","/wiki/Category:Chemical_pages_needing_a_ChemSpiderID","/w/index.php?title=Special:UserLogin&returnto=Triphenylphosphine+dichloride&type=signup","/w/index.php?title=Special:UserLogin&returnto=Triphenylphosphine+dichloride","/wiki/Triphenylphosphine_dichloride","/wiki/Talk:Triphenylphosphine_dichloride","#","/wiki/Triphenylphosphine_dichloride","/w/index.php?title=Triphenylphosphine_dichloride&action=edit","/w/index.php?title=Triphenylphosphine_dichloride&action=history","#","/w/index.php","//bits.wikimedia.org/static-1.22wmf11/skins/vector/images/search-ltr.png?303-4","/wiki/Main_Page","/wiki/Main_Page","/wiki/Portal:Contents","/wiki/Portal:Featured_content","/wiki/Portal:Current_events","/wiki/Special:Random","//donate.wikimedia.org/wiki/Special:FundraiserRedirector?utm_source=donate&utm_medium=sidebar&utm_campaign=C13_en.wikipedia.org&uselang=en","/wiki/Help:Contents","/wiki/Wikipedia:About","/wiki/Wikipedia:Community_portal","/wiki/Special:RecentChanges","//en.wikipedia.org/wiki/Wikipedia:Contact_us","/wiki/Special:WhatLinksHere/Triphenylphosphine_dichloride","/wiki/Special:RecentChangesLinked/Triphenylphosphine_dichloride","/wiki/Wikipedia:File_Upload_Wizard","/wiki/Special:SpecialPages","/w/index.php?title=Triphenylphosphine_dichloride&oldid=545853348","/w/index.php?title=Triphenylphosphine_dichloride&action=info","//www.wikidata.org/wiki/Q7843277","/w/index.php?title=Special:Cite&page=Triphenylphosphine_dichloride&id=545853348","/w/index.php?title=Special:Book&bookcmd=book_creator&referer=Triphenylphosphine+dichloride","/w/index.php?title=Special:Book&bookcmd=render_article&arttitle=Triphenylphosphine+dichloride&oldid=545853348&writer=rl","/w/index.php?title=Triphenylphosphine_dichloride&printable=yes","//fa.wikipedia.org/wiki/%D8%AA%D8%B1%DB%8C%E2%80%8C%D9%81%D9%86%DB%8C%D9%84%E2%80%8C%D9%81%D8%B3%D9%81%DB%8C%D9%86_%D8%AF%DB%8C%E2%80%8C%DA%A9%D9%84%D8%B1%DB%8C%D8%AF","#","//www.wikidata.org/wiki/Q7843277#sitelinks-wikipedia","//en.wikipedia.org/wiki/Wikipedia:Text_of_Creative_Commons_Attribution-ShareAlike_3.0_Unported_License","//creativecommons.org/licenses/by-sa/3.0/","//wikimediafoundation.org/wiki/Terms_of_Use","//wikimediafoundation.org/wiki/Privacy_policy","//www.wikimediafoundation.org/","//wikimediafoundation.org/wiki/Privacy_policy","/wiki/Wikipedia:About","/wiki/Wikipedia:General_disclaimer","//en.wikipedia.org/wiki/Wikipedia:Contact_us","//en.m.wikipedia.org/wiki/Triphenylphosphine_dichloride","//wikimediafoundation.org/","//bits.wikimedia.org/images/wikimedia-button.png","//www.mediawiki.org/","//bits.wikimedia.org/static-1.22wmf11/skins/common/images/poweredby_mediawiki_88x31.png","//bits.wikimedia.org/en.wikipedia.org/load.php?debug=false&lang=en&modules=site&only=scripts&skin=vector&*"],"instances":[],"pdf":[],"categories":["Reagents for organic chemistry"],"headings":["Structure","Synthesis","References"],"image":["//upload.wikimedia.org/wikipedia/commons/thumb/8/84/Dichlorotriphenylphosphine-2D.png/150px-Dichlorotriphenylphosphine-2D.png","//upload.wikimedia.org/wikipedia/commons/thumb/5/52/Dichlorotriphenylphosphine-molecular-from-xtal-1998-3D-balls.png/150px-Dichlorotriphenylphosphine-molecular-from-xtal-1998-3D-balls.png","//upload.wikimedia.org/wikipedia/commons/thumb/e/ec/Dichlorotriphenylphosphine-molecular-from-xtal-1998-3D-vdW.png/150px-Dichlorotriphenylphosphine-molecular-from-xtal-1998-3D-vdW.png","//upload.wikimedia.org/wikipedia/en/thumb/f/fb/Yes_check.svg/14px-Yes_check.svg.png","//upload.wikimedia.org/wikipedia/en/thumb/f/fb/Yes_check.svg/10px-Yes_check.svg.png","//upload.wikimedia.org/wikipedia/commons/thumb/a/a2/X_mark.svg/10px-X_mark.svg.png","//upload.wikimedia.org/wikipedia/commons/thumb/8/81/Chlorotriphenylphosphonium-chloride-2D.png/120px-Chlorotriphenylphosphonium-chloride-2D.png","//upload.wikimedia.org/wikipedia/commons/thumb/2/2b/Chlorotriphenylphosphonium-chloride-DCM-solvate-from-xtal-3D-balls.png/120px-Chlorotriphenylphosphonium-chloride-DCM-solvate-from-xtal-3D-balls.png","//upload.wikimedia.org/wikipedia/commons/thumb/8/8b/Chlorotriphenylphosphonium-chloride-DCM-solvate-from-xtal-3D-vdW.png/120px-Chlorotriphenylphosphonium-chloride-DCM-solvate-from-xtal-3D-vdW.png","//en.wikipedia.org/w/index.php?title=Special:CentralAutoLogin/start&type=1x1&from=enwiki","//bits.wikimedia.org/static-1.22wmf11/skins/vector/images/search-ltr.png?303-4","//bits.wikimedia.org/images/wikimedia-button.png","//bits.wikimedia.org/static-1.22wmf11/skins/common/images/poweredby_mediawiki_88x31.png"],"tags":[],"members":[],"related":["Encyclopedia_of_Reagents_for_Organic_Synthesis","Phosphorane","Triphenylphosphine","Phosphorus_trichloride","Phosphorus_pentachloride","Phosphorus_halides","Tetraphenylphosphonium_chloride","Halogenation","Alcohol","Ether","Alkyl_chloride","Epoxide","Carboxylic_acid","Acyl_chloride","Chemical_polarity","Acetonitrile","Dichloromethane","Phosphonium_salt","Diethyl_ether","Trigonal_bipyramidal_molecular_geometry","Triphenylphosphine","Stoichiometry","Triphenylphosphine_oxide","Phosphorus_trichloride"]}