{"cursor":"2252","size":15,"audio":[],"currentlang":"en","article":"\n{{chembox\n| Watchedfields = changed verifiedrevid = 409731678 Name = p-Toluic acid\n| ImageFile = 4-toluic acid.svg ImageSize = 80px ImageName = 4-Methylbenzoic\n| acid IUPACName = 4-Methylbenzoic acid OtherNames = para-toluic acid p-\n| toluic acid para-methylbenzoic acid p-methylbenzoic acid toluene-4-\n| carboxylic acid crithminic acid Section1 = {{Chembox Identifiers\n| ChemSpiderID_Ref = ChemSpiderID = 7190 KEGG_Ref = KEGG = C01454 InChI = 1/C8H8O2/c1-6-2-4-7(5-3-6)8(9)10/h2-\n| 5H,1H3,(H,9,10) InChIKey = LPNBBFKOUUSUDB-UHFFFAOYAB ChEMBL_Ref = ChEMBL =\n| 21708 StdInChI_Ref = StdInChI = 1S/C8H8O2/c1-6-2-4-7(5-3-6)8(9)10/h2-\n| 5H,1H3,(H,9,10) StdInChIKey_Ref = StdInChIKey = LPNBBFKOUUSUDB-UHFFFAOYSA-N\n| CASNo_Ref = CASNo = 99-94-5 EINECS = 202-803-3 SMILES = O=C(O)c1ccc(cc1)C\n}}\n| Section2 = {{Chembox Properties C=8|H=8|O=2 Appearance = Crystalline solid\n| MeltingPtCL = 180 MeltingPtCH = 181 Melting_notes = [[Merck\n| Index]], 12th Edition, '9673' BoilingPtCL = 274 BoilingPtCL = 275\n| Boiling_notes =  Solubility = Sparingly soluble in hot water\n| Density =\n  }}\n| Section4 = {{Chembox Thermochemistry DeltaHf = -429 kJ/mol DeltaHc = 3862\n| kJ/mol}}\n}}\n\n'p-Toluic acid' ('4-methylbenzoic acid') is a substituted benzoic acid with\nthe formula CH 3C 6H 4COOH. It is an\nintermediate in some industrial processes for the oxidation of ''p''-xylene to\nterephthalic acid which is used in the manufacture of polyethylene\nterephthalate. It is a white crystalline solid that is practically insoluble\nin water, but soluble in acetone.\n","linknr":134,"url":"P-Toluic_acid","recorded":1364154708,"links":["/w/index.php?title=P-Toluic_acid&action=edit","/w/index.php?title=P-Toluic_acid&action=edit","//en.wikipedia.org/apple-touch-icon.png","//bits.wikimedia.org/favicon/wikipedia.ico","/w/opensearch_desc.php","//en.wikipedia.org/w/api.php?action=rsd","//creativecommons.org/licenses/by-sa/3.0/","/w/index.php?title=Special:RecentChanges&feed=atom","//bits.wikimedia.org/en.wikipedia.org/load.php?debug=false&lang=en&modules=ext.gadget.DRN-wizard%2CReferenceTooltips%2Ccharinsert%2Cteahouse%7Cext.wikihiero%7Cmediawiki.legacy.commonPrint%2Cshared%7Cmw.PopUpMediaTransform%7Cskins.vector&only=styles&skin=vector&*","//bits.wikimedia.org/en.wikipedia.org/load.php?debug=false&lang=en&modules=site&only=styles&skin=vector&*","//bits.wikimedia.org/en.wikipedia.org/load.php?debug=false&lang=en&modules=startup&only=scripts&skin=vector&*","//bits.wikimedia.org/geoiplookup","//meta.wikimedia.org","#mw-head","#p-search","/wiki/File:4-toluic_acid.svg","//upload.wikimedia.org/wikipedia/commons/thumb/4/4f/4-toluic_acid.svg/80px-4-toluic_acid.svg.png","/wiki/International_Union_of_Pure_and_Applied_Chemistry_nomenclature","/wiki/CAS_registry_number","http://www.commonchemistry.org/ChemicalDetail.aspx?ref=99-94-5","//upload.wikimedia.org/wikipedia/en/thumb/f/fb/Yes_check.svg/7px-Yes_check.svg.png","/wiki/ChemSpider","http://www.chemspider.com/7190","//upload.wikimedia.org/wikipedia/en/thumb/f/fb/Yes_check.svg/7px-Yes_check.svg.png","/wiki/EC_number_(chemistry)","http://esis.jrc.ec.europa.eu/lib/einecs_IS_reponse.php?genre=ECNO&entree=202-803-3","/wiki/KEGG","http://www.kegg.jp/entry/C01454","//upload.wikimedia.org/wikipedia/en/thumb/f/fb/Yes_check.svg/7px-Yes_check.svg.png","/wiki/ChEMBL","https://www.ebi.ac.uk/chembldb/index.php/compound/inspect/CHEMBL21708","//upload.wikimedia.org/wikipedia/en/thumb/f/fb/Yes_check.svg/7px-Yes_check.svg.png","/wiki/Jmol","http://chemapps.stolaf.edu/jmol/jmol.php?model=O%3DC%28O%29c1ccc%28cc1%29C","/wiki/Simplified_molecular-input_line-entry_system","/wiki/International_Chemical_Identifier","//upload.wikimedia.org/wikipedia/en/thumb/f/fb/Yes_check.svg/7px-Yes_check.svg.png","//upload.wikimedia.org/wikipedia/en/thumb/f/fb/Yes_check.svg/7px-Yes_check.svg.png","/wiki/Molecular_formula","/wiki/Molar_mass","/wiki/Melting_point","#cite_note-Merck-1","/wiki/Boiling_point","#cite_note-Merck-1","/wiki/Solubility","/wiki/Water","/wiki/Standard_enthalpy_change_of_formation","/wiki/Standard_enthalpy_change_of_combustion","//upload.wikimedia.org/wikipedia/en/thumb/f/fb/Yes_check.svg/14px-Yes_check.svg.png","//en.wikipedia.org/w/index.php?title=Special:ComparePages&rev1=409731678&page2=P-Toluic+acid","/wiki/Wikipedia:WikiProject_Chemicals/Chembox_validation","//upload.wikimedia.org/wikipedia/en/thumb/f/fb/Yes_check.svg/10px-Yes_check.svg.png","//upload.wikimedia.org/wikipedia/commons/thumb/a/a2/X_mark.svg/10px-X_mark.svg.png","/wiki/Standard_state","/wiki/Wikipedia:Chemical_infobox#References","/wiki/Benzoic_acid","/wiki/P-Xylene","/wiki/Terephthalic_acid","/wiki/Polyethylene_terephthalate","/wiki/Acetone","/w/index.php?title=P-Toluic_acid&action=edit&section=1","/wiki/O-Toluic_acid","/wiki/M-Toluic_acid","/w/index.php?title=P-Toluic_acid&action=edit&section=2","#cite_ref-Merck_1-0","#cite_ref-Merck_1-1","/wiki/Merck_Index","/wiki/File:Benzene-3D-vdW.png","//upload.wikimedia.org/wikipedia/commons/thumb/9/97/Benzene-3D-vdW.png/40px-Benzene-3D-vdW.png","/wiki/Aromatic","/wiki/Wikipedia:Stub","//en.wikipedia.org/w/index.php?title=P-Toluic_acid&action=edit","/wiki/Template:Aromatic-stub","/wiki/Template_talk:Aromatic-stub","//en.wikipedia.org/w/index.php?title=Template:Aromatic-stub&action=edit","http://en.wikipedia.org/w/index.php?title=P-Toluic_acid&oldid=541197742","/wiki/Help:Categories","/wiki/Category:Benzoic_acids","/wiki/Category:Aromatic_compound_stubs","/wiki/Category:Chemboxes_which_contain_changes_to_watched_fields","/w/index.php?title=Special:UserLogin&returnto=P-Toluic+acid&type=signup","/w/index.php?title=Special:UserLogin&returnto=P-Toluic+acid","/wiki/P-Toluic_acid","/wiki/Talk:P-Toluic_acid","#","/wiki/P-Toluic_acid","/w/index.php?title=P-Toluic_acid&action=edit","/w/index.php?title=P-Toluic_acid&action=history","#","/w/index.php","//bits.wikimedia.org/static-1.21wmf11/skins/vector/images/search-ltr.png?303-4","/wiki/Main_Page","/wiki/Main_Page","/wiki/Portal:Contents","/wiki/Portal:Featured_content","/wiki/Portal:Current_events","/wiki/Special:Random","//donate.wikimedia.org/wiki/Special:FundraiserRedirector?utm_source=donate&utm_medium=sidebar&utm_campaign=C13_en.wikipedia.org&uselang=en","/wiki/Help:Contents","/wiki/Wikipedia:About","/wiki/Wikipedia:Community_portal","/wiki/Special:RecentChanges","/wiki/Wikipedia:Contact_us","/wiki/Special:WhatLinksHere/P-Toluic_acid","/wiki/Special:RecentChangesLinked/P-Toluic_acid","/wiki/Wikipedia:File_Upload_Wizard","/wiki/Special:SpecialPages","/w/index.php?title=P-Toluic_acid&oldid=541197742","/w/index.php?title=P-Toluic_acid&action=info","/w/index.php?title=Special:Cite&page=P-Toluic_acid&id=541197742","/w/index.php?title=Special:Book&bookcmd=book_creator&referer=P-Toluic+acid","/w/index.php?title=Special:Book&bookcmd=render_article&arttitle=P-Toluic+acid&oldid=541197742&writer=rl","/w/index.php?title=P-Toluic_acid&printable=yes","//de.wikipedia.org/wiki/Toluyls%C3%A4uren","//fa.wikipedia.org/wiki/%D9%BE%DB%8C-%D8%AA%D9%88%D9%84%D9%88%D8%A6%DB%8C%DA%A9_%D8%A7%D8%B3%DB%8C%D8%AF","//lv.wikipedia.org/wiki/Toluilsk%C4%81bes","//hu.wikipedia.org/wiki/P-toluilsav","//pt.wikipedia.org/wiki/%C3%81cido_toluico","//www.wikidata.org/wiki/Special:ItemByTitle/enwiki/P-Toluic acid","//en.wikipedia.org/wiki/Wikipedia:Text_of_Creative_Commons_Attribution-ShareAlike_3.0_Unported_License","//creativecommons.org/licenses/by-sa/3.0/","//wikimediafoundation.org/wiki/Terms_of_Use","//www.wikimediafoundation.org/","//en.wikipedia.org/wiki/Wikipedia:Contact_us","//wikimediafoundation.org/wiki/Privacy_policy","/wiki/Wikipedia:About","/wiki/Wikipedia:General_disclaimer","http://en.m.wikipedia.org/wiki/P-Toluic_acid","//wikimediafoundation.org/","//bits.wikimedia.org/images/wikimedia-button.png","//www.mediawiki.org/","//bits.wikimedia.org/static-1.21wmf11/skins/common/images/poweredby_mediawiki_88x31.png","//bits.wikimedia.org/en.wikipedia.org/load.php?debug=false&lang=en&modules=skins.vector&only=scripts&skin=vector&*","/w/index.php?title=MediaWiki:Gadget-ReferenceTooltips.js&action=raw&ctype=text/javascript&508635914","//bits.wikimedia.org/en.wikipedia.org/load.php?debug=false&lang=en&modules=site&only=scripts&skin=vector&*"],"instances":[],"pdf":[],"categories":["Benzoic acids"],"headings":["See also","References"],"image":["//upload.wikimedia.org/wikipedia/commons/thumb/4/4f/4-toluic_acid.svg/80px-4-toluic_acid.svg.png","//upload.wikimedia.org/wikipedia/en/thumb/f/fb/Yes_check.svg/7px-Yes_check.svg.png","//upload.wikimedia.org/wikipedia/en/thumb/f/fb/Yes_check.svg/7px-Yes_check.svg.png","//upload.wikimedia.org/wikipedia/en/thumb/f/fb/Yes_check.svg/7px-Yes_check.svg.png","//upload.wikimedia.org/wikipedia/en/thumb/f/fb/Yes_check.svg/7px-Yes_check.svg.png","//upload.wikimedia.org/wikipedia/en/thumb/f/fb/Yes_check.svg/7px-Yes_check.svg.png","//upload.wikimedia.org/wikipedia/en/thumb/f/fb/Yes_check.svg/7px-Yes_check.svg.png","//upload.wikimedia.org/wikipedia/en/thumb/f/fb/Yes_check.svg/14px-Yes_check.svg.png","//upload.wikimedia.org/wikipedia/en/thumb/f/fb/Yes_check.svg/10px-Yes_check.svg.png","//upload.wikimedia.org/wikipedia/commons/thumb/a/a2/X_mark.svg/10px-X_mark.svg.png","//upload.wikimedia.org/wikipedia/commons/thumb/9/97/Benzene-3D-vdW.png/40px-Benzene-3D-vdW.png","//bits.wikimedia.org/static-1.21wmf11/skins/vector/images/search-ltr.png?303-4","//bits.wikimedia.org/images/wikimedia-button.png","//bits.wikimedia.org/static-1.21wmf11/skins/common/images/poweredby_mediawiki_88x31.png"],"tags":[],"members":[],"related":["Benzoic_acid","P-Xylene","Terephthalic_acid","Polyethylene_terephthalate","Acetone","O-Toluic_acid","M-Toluic_acid"]}