{"cursor":"4505","size":15,"audio":[],"currentlang":"en","article":"{{chembox\n| verifiedrevid = 464201153 Name = Phenylhydrazine Reference = Merck Index, 11th Edition, '7264'. [http://www.cheric.-\n| org/kdb/kdb/hcprop/showprop.php?cmpid=1470 Pure component properties]\n| ImageFile = phenylhydrazine.png ImageSize = 100px ImageName = Phenylhydrazine\n| ImageFileL1 = Phenylhydrazine-3D-balls.png ImageSizeL1 = 100px ImageNameL1 =\n| Ball-and-stick model of phenylhydrazine ImageFileR1 = Phenylhydrazine-3D-\n| vdW.png ImageSizeR1 = 100px ImageNameR1 = Space-filling model of\n| phenylhydrazine IUPACName = Phenylhydrazine OtherNames = Hydrazinobenzene\n| Section1 = {{Chembox Identifiers ChemSpiderID_Ref = ChemSpiderID = 7235\n| PubChem = 7516 KEGG_Ref = KEGG = C02304 InChI = 1/C6H8N2/c7-8-6-4-2-1-3-5-6/h1-\n| 5,8H,7H2 InChIKey = HKOOXMFOFWEVGF-UHFFFAOYAN ChEMBL_Ref = ChEMBL = 456807\n| StdInChI_Ref = StdInChI = 1S/C6H8N2/c7-8-6-4-2-1-3-5-6/h1-5,8H,7H2\n| StdInChIKey_Ref = StdInChIKey = HKOOXMFOFWEVGF-UHFFFAOYSA-N CASNo_Ref = CASNo\n| = 100-63-0 ChEBI_Ref = ChEBI = 27924 SMILES = NNc1ccccc1\n}}\n| Section2 = {{Chembox Properties Formula =\n| C 6H 8N 2 MolarMass = 108.14 g/mol Density =\n| 1.0978 g/cm 3 MeltingPt = 19.5 °C 24 °C for hemihydrate\n| BoilingPt = 243.5 °C (decomposition)\n  }}\n| Section7 = {{Chembox Hazards NFPA-H = 3 NFPA-F = 2 NFPA-R = 3\n  }} }}\n\n'Phenylhydrazine' is the chemical compound with the formula\nC 6H 5NHNH 2. Organic chemists abbreviate the\ncompound as PhNHNH 2.\n","linknr":242,"url":"Phenylhydrazine","recorded":1374522243,"links":["/w/index.php?title=Phenylhydrazine&action=edit","/w/index.php?title=Phenylhydrazine&action=edit","//bits.wikimedia.org/favicon/wikipedia.ico","/w/opensearch_desc.php","//en.wikipedia.org/w/api.php?action=rsd","//creativecommons.org/licenses/by-sa/3.0/","/w/index.php?title=Special:RecentChanges&feed=atom","//bits.wikimedia.org/en.wikipedia.org/load.php?debug=false&lang=en&modules=ext.gadget.DRN-wizard%2CReferenceTooltips%2Ccharinsert%2Cteahouse%7Cext.rtlcite%2Cwikihiero%7Cext.uls.nojs%7Cmediawiki.legacy.commonPrint%2Cshared%7Cmw.PopUpMediaTransform%7Cskins.vector&only=styles&skin=vector&*","//bits.wikimedia.org/en.wikipedia.org/load.php?debug=false&lang=en&modules=site&only=styles&skin=vector&*","//bits.wikimedia.org/en.wikipedia.org/load.php?debug=false&lang=en&modules=startup&only=scripts&skin=vector&*","//bits.wikimedia.org/geoiplookup","//meta.wikimedia.org","#mw-navigation","#p-search","#cite_note-Merck-1","#cite_note-2","/wiki/File:Phenylhydrazine.png","//upload.wikimedia.org/wikipedia/commons/thumb/d/d8/Phenylhydrazine.png/100px-Phenylhydrazine.png","/wiki/File:Phenylhydrazine-3D-balls.png","//upload.wikimedia.org/wikipedia/commons/thumb/6/62/Phenylhydrazine-3D-balls.png/100px-Phenylhydrazine-3D-balls.png","/wiki/File:Phenylhydrazine-3D-vdW.png","//upload.wikimedia.org/wikipedia/commons/thumb/c/c0/Phenylhydrazine-3D-vdW.png/100px-Phenylhydrazine-3D-vdW.png","/wiki/International_Union_of_Pure_and_Applied_Chemistry_nomenclature","/wiki/CAS_registry_number","http://www.commonchemistry.org/ChemicalDetail.aspx?ref=100-63-0","//upload.wikimedia.org/wikipedia/en/thumb/f/fb/Yes_check.svg/7px-Yes_check.svg.png","/wiki/PubChem","http://pubchem.ncbi.nlm.nih.gov/summary/summary.cgi?cid=7516","/wiki/ChemSpider","http://www.chemspider.com/7235","//upload.wikimedia.org/wikipedia/en/thumb/f/fb/Yes_check.svg/7px-Yes_check.svg.png","/wiki/KEGG","http://www.kegg.jp/entry/C02304","//upload.wikimedia.org/wikipedia/en/thumb/f/fb/Yes_check.svg/7px-Yes_check.svg.png","/wiki/ChEBI","https://www.ebi.ac.uk/chebi/searchId.do?chebiId=27924","//upload.wikimedia.org/wikipedia/en/thumb/f/fb/Yes_check.svg/7px-Yes_check.svg.png","/wiki/ChEMBL","https://www.ebi.ac.uk/chembldb/index.php/compound/inspect/CHEMBL456807","//upload.wikimedia.org/wikipedia/en/thumb/f/fb/Yes_check.svg/7px-Yes_check.svg.png","/wiki/Jmol","http://chemapps.stolaf.edu/jmol/jmol.php?model=NNc1ccccc1","/wiki/Simplified_molecular-input_line-entry_system","/wiki/International_Chemical_Identifier","//upload.wikimedia.org/wikipedia/en/thumb/f/fb/Yes_check.svg/7px-Yes_check.svg.png","//upload.wikimedia.org/wikipedia/en/thumb/f/fb/Yes_check.svg/7px-Yes_check.svg.png","/wiki/Chemical_formula","/wiki/Molar_mass","/wiki/Density","/wiki/Melting_point","/wiki/Boiling_point","/wiki/NFPA_704","/wiki/File:NFPA_704.svg","//upload.wikimedia.org/wikipedia/commons/thumb/6/6f/NFPA_704.svg/75px-NFPA_704.svg.png","//upload.wikimedia.org/wikipedia/en/thumb/f/fb/Yes_check.svg/14px-Yes_check.svg.png","//en.wikipedia.org/w/index.php?title=Special:ComparePages&rev1=464201153&page2=Phenylhydrazine","/wiki/Wikipedia:WikiProject_Chemicals/Chembox_validation","//upload.wikimedia.org/wikipedia/en/thumb/f/fb/Yes_check.svg/10px-Yes_check.svg.png","//upload.wikimedia.org/wikipedia/commons/thumb/a/a2/X_mark.svg/10px-X_mark.svg.png","/wiki/Standard_state","/wiki/Wikipedia:Chemical_infobox#References","/wiki/Chemical_compound","#Chemical_properties","#Preparation","#History","#Uses","#Safety","#See_also","#References","#External_links","/w/index.php?title=Phenylhydrazine&action=edit&section=1","#cite_note-Merck-1","/wiki/Ethanol","/wiki/Diethyl_ether","/wiki/Chloroform","/wiki/Benzene","/w/index.php?title=Phenylhydrazine&action=edit&section=2","/wiki/Aniline","/wiki/Sodium_nitrite","/wiki/Hydrogen_chloride","/wiki/Diazonium_salt","/wiki/Sodium_sulfite","/wiki/Sodium_hydroxide","#cite_note-merck-3","/w/index.php?title=Phenylhydrazine&action=edit&section=3","/wiki/Hydrazine","/wiki/Hermann_Emil_Fischer","#cite_note-4","/wiki/Organic_reduction","/wiki/Diazonium","/wiki/Sulfite","/wiki/Sugar","/wiki/Hydrazone","/wiki/Aldehyde","/w/index.php?title=Phenylhydrazine&action=edit&section=4","/wiki/Indole","/wiki/Fischer_indole_synthesis","/wiki/Phenylhydrazone","/wiki/Sugar","#cite_note-5","/w/index.php?title=Phenylhydrazine&action=edit&section=5","/wiki/Contact_dermatitis","/wiki/Hemolytic_anemia","#cite_note-Merck-1","/w/index.php?title=Phenylhydrazine&action=edit&section=6","/wiki/Fischer_indole_synthesis","/w/index.php?title=Phenylhydrazine&action=edit&section=7","#cite_ref-Merck_1-0","#cite_ref-Merck_1-1","#cite_ref-Merck_1-2","#cite_ref-2","http://www.cheric.org/kdb/kdb/hcprop/showprop.php?cmpid=1470","#cite_ref-merck_3-0","#cite_ref-4","http://gallica.bnf.fr/ark:/12148/bpt6k90680z/f589.zoom.langEN","#cite_ref-5","/wiki/Andrew_Streitwieser","/wiki/Clayton_Heathcock","/wiki/International_Standard_Book_Number","/wiki/Special:BookSources/0-02-418010-6","/w/index.php?title=Phenylhydrazine&action=edit&section=8","http://www.nlm.nih.gov/cgi/mesh/2011/MB_cgi?mode=&term=Phenylhydrazines","/wiki/Medical_Subject_Headings","http://pubchem.ncbi.nlm.nih.gov/summary/summary.cgi?cid=7516","http://www.chemicalland21.com/lifescience/agro/PHENYL%20HYDRAZINE.htm","/wiki/Template:Hydrazines","/wiki/Template_talk:Hydrazines","//en.wikipedia.org/w/index.php?title=Template:Hydrazines&action=edit","/wiki/Hydrazine","/wiki/4-Phenylthiosemicarbazide","/wiki/Acylhydrazine","/wiki/Adipic_acid_dihydrazide","/wiki/Adjudin","/wiki/Agaritine","/wiki/Benmoxin","/wiki/Cadralazine","/wiki/Carbazide","/wiki/Carbidopa","/wiki/Carbohydrazide","/wiki/Daminozide","/wiki/Dihydralazine","/wiki/2,4-Dinitrophenylhydrazine","/wiki/Endralazine","/wiki/Gyromitrin","/wiki/HBT_(explosive)","/wiki/Hydralazine","/wiki/Hydrazide","/wiki/Hydrazine","/wiki/Hydrazone","/wiki/Iproclozide","/wiki/Iproniazid","/wiki/Isocarboxazid","/wiki/Isoniazid","/wiki/Mebanazine","/wiki/Metfendrazine","/wiki/Monomethylhydrazine","/wiki/Nialamide","/wiki/Octamoxin","/wiki/Phenylethylidenehydrazine","/wiki/Phenelzine","/wiki/Pheniprazine","/wiki/Phenoxypropazine","/wiki/Pildralazine","/wiki/Pimagedine","/wiki/Pivalylbenzhydrazine","/wiki/Procarbazine","/wiki/Safrazine","/wiki/Semicarbazide","/wiki/Semicarbazone","/wiki/Symmetrical_dimethylhydrazine","/wiki/Tetrafluorohydrazine","/wiki/Thiosemicarbazide","/wiki/Thiosemicarbazone","/wiki/Unsymmetrical_dimethylhydrazine","//en.wikipedia.org/w/index.php?title=Special:CentralAutoLogin/start&type=1x1&from=enwiki","http://en.wikipedia.org/w/index.php?title=Phenylhydrazine&oldid=551191798","/wiki/Help:Categories","/wiki/Category:Aromatic_compounds","/wiki/Category:Hydrazines","/wiki/Category:Monoamine_oxidase_inhibitors","/w/index.php?title=Special:UserLogin&returnto=Phenylhydrazine&type=signup","/w/index.php?title=Special:UserLogin&returnto=Phenylhydrazine","/wiki/Phenylhydrazine","/wiki/Talk:Phenylhydrazine","#","/wiki/Phenylhydrazine","/w/index.php?title=Phenylhydrazine&action=edit","/w/index.php?title=Phenylhydrazine&action=history","#","/w/index.php","//bits.wikimedia.org/static-1.22wmf10/skins/vector/images/search-ltr.png?303-4","/wiki/Main_Page","/wiki/Main_Page","/wiki/Portal:Contents","/wiki/Portal:Featured_content","/wiki/Portal:Current_events","/wiki/Special:Random","//donate.wikimedia.org/wiki/Special:FundraiserRedirector?utm_source=donate&utm_medium=sidebar&utm_campaign=C13_en.wikipedia.org&uselang=en","/wiki/Help:Contents","/wiki/Wikipedia:About","/wiki/Wikipedia:Community_portal","/wiki/Special:RecentChanges","//en.wikipedia.org/wiki/Wikipedia:Contact_us","/wiki/Special:WhatLinksHere/Phenylhydrazine","/wiki/Special:RecentChangesLinked/Phenylhydrazine","/wiki/Wikipedia:File_Upload_Wizard","/wiki/Special:SpecialPages","/w/index.php?title=Phenylhydrazine&oldid=551191798","/w/index.php?title=Phenylhydrazine&action=info","//www.wikidata.org/wiki/Q290862","/w/index.php?title=Special:Cite&page=Phenylhydrazine&id=551191798","/w/index.php?title=Special:Book&bookcmd=book_creator&referer=Phenylhydrazine","/w/index.php?title=Special:Book&bookcmd=render_article&arttitle=Phenylhydrazine&oldid=551191798&writer=rl","/w/index.php?title=Phenylhydrazine&printable=yes","//de.wikipedia.org/wiki/Phenylhydrazin","//fa.wikipedia.org/wiki/%D9%81%D9%86%DB%8C%D9%84%E2%80%8C%D9%87%DB%8C%D8%AF%D8%B1%D8%A7%D8%B2%DB%8C%D9%86","//fr.wikipedia.org/wiki/Ph%C3%A9nylhydrazine","//it.wikipedia.org/wiki/Fenilidrazina","//nl.wikipedia.org/wiki/Fenylhydrazine","//ja.wikipedia.org/wiki/%E3%83%95%E3%82%A7%E3%83%8B%E3%83%AB%E3%83%92%E3%83%89%E3%83%A9%E3%82%B8%E3%83%B3","//pt.wikipedia.org/wiki/Fenilidrazina","//ru.wikipedia.org/wiki/%D0%A4%D0%B5%D0%BD%D0%B8%D0%BB%D0%B3%D0%B8%D0%B4%D1%80%D0%B0%D0%B7%D0%B8%D0%BD","//sl.wikipedia.org/wiki/Fenilhidrazin","//fi.wikipedia.org/wiki/Fenyylihydratsiini","//sv.wikipedia.org/wiki/Fenylhydrazin","//zh.wikipedia.org/wiki/%E8%8B%AF%E8%82%BC","#","//www.wikidata.org/wiki/Q290862#sitelinks-wikipedia","//en.wikipedia.org/wiki/Wikipedia:Text_of_Creative_Commons_Attribution-ShareAlike_3.0_Unported_License","//creativecommons.org/licenses/by-sa/3.0/","//wikimediafoundation.org/wiki/Terms_of_Use","//wikimediafoundation.org/wiki/Privacy_policy","//www.wikimediafoundation.org/","//wikimediafoundation.org/wiki/Privacy_policy","/wiki/Wikipedia:About","/wiki/Wikipedia:General_disclaimer","//en.wikipedia.org/wiki/Wikipedia:Contact_us","//en.m.wikipedia.org/wiki/Phenylhydrazine","//wikimediafoundation.org/","//bits.wikimedia.org/images/wikimedia-button.png","//www.mediawiki.org/","//bits.wikimedia.org/static-1.22wmf10/skins/common/images/poweredby_mediawiki_88x31.png","//bits.wikimedia.org/en.wikipedia.org/load.php?debug=false&lang=en&modules=site&only=scripts&skin=vector&*"],"instances":[],"pdf":[],"categories":["Aromatic compounds","Hydrazines","Monoamine oxidase inhibitors"],"headings":["Chemical properties","Preparation","History","Uses","Safety","See also","References","External links"],"image":["//upload.wikimedia.org/wikipedia/commons/thumb/d/d8/Phenylhydrazine.png/100px-Phenylhydrazine.png","//upload.wikimedia.org/wikipedia/commons/thumb/6/62/Phenylhydrazine-3D-balls.png/100px-Phenylhydrazine-3D-balls.png","//upload.wikimedia.org/wikipedia/commons/thumb/c/c0/Phenylhydrazine-3D-vdW.png/100px-Phenylhydrazine-3D-vdW.png","//upload.wikimedia.org/wikipedia/en/thumb/f/fb/Yes_check.svg/7px-Yes_check.svg.png","//upload.wikimedia.org/wikipedia/en/thumb/f/fb/Yes_check.svg/7px-Yes_check.svg.png","//upload.wikimedia.org/wikipedia/en/thumb/f/fb/Yes_check.svg/7px-Yes_check.svg.png","//upload.wikimedia.org/wikipedia/en/thumb/f/fb/Yes_check.svg/7px-Yes_check.svg.png","//upload.wikimedia.org/wikipedia/en/thumb/f/fb/Yes_check.svg/7px-Yes_check.svg.png","//upload.wikimedia.org/wikipedia/en/thumb/f/fb/Yes_check.svg/7px-Yes_check.svg.png","//upload.wikimedia.org/wikipedia/en/thumb/f/fb/Yes_check.svg/7px-Yes_check.svg.png","//upload.wikimedia.org/wikipedia/commons/thumb/6/6f/NFPA_704.svg/75px-NFPA_704.svg.png","//upload.wikimedia.org/wikipedia/en/thumb/f/fb/Yes_check.svg/14px-Yes_check.svg.png","//upload.wikimedia.org/wikipedia/en/thumb/f/fb/Yes_check.svg/10px-Yes_check.svg.png","//upload.wikimedia.org/wikipedia/commons/thumb/a/a2/X_mark.svg/10px-X_mark.svg.png","//en.wikipedia.org/w/index.php?title=Special:CentralAutoLogin/start&type=1x1&from=enwiki","//bits.wikimedia.org/static-1.22wmf10/skins/vector/images/search-ltr.png?303-4","//bits.wikimedia.org/images/wikimedia-button.png","//bits.wikimedia.org/static-1.22wmf10/skins/common/images/poweredby_mediawiki_88x31.png"],"tags":[],"members":[],"related":["Chemical_compound","Ethanol","Diethyl_ether","Chloroform","Benzene","Aniline","Sodium_nitrite","Hydrogen_chloride","Diazonium_salt","Sodium_sulfite","Sodium_hydroxide","Hydrazine","Hermann_Emil_Fischer","Organic_reduction","Diazonium","Sulfite","Sugar","Hydrazone","Aldehyde","Indole","Fischer_indole_synthesis","Phenylhydrazone","Sugar","Contact_dermatitis","Hemolytic_anemia","Fischer_indole_synthesis"]}