{"cursor":"27424","size":15,"audio":[],"currentlang":"en","article":"\n{{Chembox\n| Watchedfields = changed verifiedrevid = 464375285 ImageFileL1 = Propane-2D-\n| Skeletal.svg ImageFileL1_Ref = ImageNameL1 = Skeletal formula of propane\n| ImageFileR1 = PropaneFull.png ImageFileR1_Ref = ImageNameR1 = Skeletal formula\n| of propane with all implicit carbons shown, and all explicit hydrogens added\n| ImageFileL2 = Propane-3D-balls-B.png ImageFileL2_Ref = ImageNameL2 = Ball and\n| stick model of propane ImageFileR2 = Propane-3D-vdW-B.png ImageFileR2_Ref =\n| ImageNameR2 = Spacefill model of propane IUPACName = Propane\n| Section1 = {{Chembox Identifiers CASNo = 74-98-6 CASNo_Ref = PubChem = 6334\n| PubChem_Ref = ChemSpiderID = 6094 ChemSpiderID_Ref = UNII = T75W9911L6\n| UNII_Ref = EINECS = 200-827-9 UNNumber = 1978 KEGG = D05625 KEGG_Ref = ChEBI =\n| 32879 ChEBI_Ref = ChEMBL = 135416 ChEMBL_Ref = RTECS = TX2275000 Beilstein =\n| 1730718 Gmelin = 25044 SMILES = CCC StdInChI = 1S/C3H8/c1-3-2/h3H2,1-2H3\n| StdInChI_Ref = StdInChIKey = ATUOYWHBWRKTHZ-UHFFFAOYSA-N StdInChIKey_Ref =\n}}\n| Section2 = {{Chembox Properties Reference =  C = 3 H\n| = 8 Appearance = Colorless gas Odor = Odorless Density = 2.0098 mg\n| mL −1 (at 0 °C, 101.3 kPa) MeltingPtK = 85.5 BoilingPtKL = 230.9\n| BoilingPtKH = 231.11 Solubility = 40 mg L −1 (at 0 °C) LogP = 2.236\n| VaporPressure = 853.16 kPa (at 21.1 °C) HenryConstant = 15 nmol\n| Pa −1 kg −1\n}}\n| Section3 = {{Chembox Thermochemistry DeltaHf = −105.2–−104.2 kJ\n| mol −1 DeltaHc = −2.2197–−2.2187 MJ mol −1 HeatCapacity =\n| 73.60 J K −1 mol −1\n}}\n| Section4 = {{Chembox Hazards GHSPictograms = GHSSignalWord = 'DANGER' HPhrases\n| = PPhrases = EUIndex = 601-003-00-5 EUClass = RPhrases = SPhrases = , NFPA-H =\n| 1 NFPA-F = 4 NFPA-R = 0 FlashPt = −104 °C Autoignition = 540 °C ExploLimits =\n| 2.37–9.5%\n}}\n| Section5 = {{Chembox Related Function = alkanes OtherFunctn = OtherCpds =\n| Diiodohydroxypropane\n}} }} 'Propane' is a three-carbon alkane with the molecular formula , normally a\ngas, but compressible to a transportable liquid. A by-product of natural gas\nprocessing and petroleum refining, it is commonly used as a fuel for engines,\noxy-gas torches, barbecues, portable stoves, and residential central heating.\nPropane is one of a group of liquefied petroleum gases. The others include\nbutane, propylene, butadiene, butylene, isobutylene and mixtures thereof.\n\nPropane containing too much propene (also called propylene) is not suited for\nmost vehicle fuels. HD-5 is a specification which establishes a maximum\nconcentration of 5% propene in propane. Propane and other LP gas specifications\nare established in ASTM D-1835. [http://www.astm.org/Standards/D1835.htm\nASTM D-1835] All propane fuels include an odorant, almost always\nethanethiol, so that people can easily smell the gas in case of a leak. Propane\nas HD-5 was originally intended for use as vehicle fuel. HD-5 is currently being\nused in all propane applications.\n","linknr":690,"url":"propane","recorded":1363503042,"links":["/w/index.php?title=Propane&action=edit","/w/index.php?title=Propane&action=edit","//en.wikipedia.org/apple-touch-icon.png","//bits.wikimedia.org/favicon/wikipedia.ico","/w/opensearch_desc.php","//en.wikipedia.org/w/api.php?action=rsd","//creativecommons.org/licenses/by-sa/3.0/","/w/index.php?title=Special:RecentChanges&feed=atom","//bits.wikimedia.org/en.wikipedia.org/load.php?debug=false&lang=en&modules=ext.gadget.DRN-wizard%2CReferenceTooltips%2Ccharinsert%2Cteahouse%7Cext.wikihiero%7Cmediawiki.legacy.commonPrint%2Cshared%7Cmw.PopUpMediaTransform%7Cskins.vector&only=styles&skin=vector&*","//bits.wikimedia.org/en.wikipedia.org/load.php?debug=false&lang=en&modules=site&only=styles&skin=vector&*","//bits.wikimedia.org/en.wikipedia.org/load.php?debug=false&lang=en&modules=startup&only=scripts&skin=vector&*","//bits.wikimedia.org/geoiplookup","//meta.wikimedia.org","#mw-head","#p-search","/wiki/Propene","/wiki/File:Propane-2D-Skeletal.svg","//upload.wikimedia.org/wikipedia/commons/thumb/7/7d/Propane-2D-Skeletal.svg/100px-Propane-2D-Skeletal.svg.png","/wiki/File:PropaneFull.png","//upload.wikimedia.org/wikipedia/commons/thumb/9/99/PropaneFull.png/100px-PropaneFull.png","/wiki/File:Propane-3D-balls-B.png","//upload.wikimedia.org/wikipedia/commons/thumb/e/e4/Propane-3D-balls-B.png/100px-Propane-3D-balls-B.png","/wiki/File:Propane-3D-vdW-B.png","//upload.wikimedia.org/wikipedia/commons/thumb/6/6e/Propane-3D-vdW-B.png/100px-Propane-3D-vdW-B.png","/wiki/International_Union_of_Pure_and_Applied_Chemistry_nomenclature","#cite_note-1","/wiki/CAS_registry_number","http://www.commonchemistry.org/ChemicalDetail.aspx?ref=74-98-6","//upload.wikimedia.org/wikipedia/en/thumb/f/fb/Yes_check.svg/7px-Yes_check.svg.png","/wiki/PubChem","http://pubchem.ncbi.nlm.nih.gov/summary/summary.cgi?cid=6334","/wiki/ChemSpider","http://www.chemspider.com/6094","//upload.wikimedia.org/wikipedia/en/thumb/f/fb/Yes_check.svg/7px-Yes_check.svg.png","/wiki/Unique_Ingredient_Identifier","http://fdasis.nlm.nih.gov/srs/srsdirect.jsp?regno=T75W9911L6","//upload.wikimedia.org/wikipedia/en/thumb/f/fb/Yes_check.svg/7px-Yes_check.svg.png","/wiki/EC_number_(chemistry)","http://esis.jrc.ec.europa.eu/lib/einecs_IS_reponse.php?genre=ECNO&entree=200-827-9","/wiki/UN_number","/wiki/KEGG","http://www.kegg.jp/entry/D05625","//upload.wikimedia.org/wikipedia/en/thumb/f/fb/Yes_check.svg/7px-Yes_check.svg.png","/wiki/ChEBI","https://www.ebi.ac.uk/chebi/searchId.do?chebiId=32879","//upload.wikimedia.org/wikipedia/en/thumb/f/fb/Yes_check.svg/7px-Yes_check.svg.png","/wiki/ChEMBL","https://www.ebi.ac.uk/chembldb/index.php/compound/inspect/CHEMBL135416","//upload.wikimedia.org/wikipedia/en/thumb/f/fb/Yes_check.svg/7px-Yes_check.svg.png","/wiki/RTECS","/wiki/Beilstein_database","/wiki/Gmelin_database","/wiki/Jmol","http://chemapps.stolaf.edu/jmol/jmol.php?model=CCC","/wiki/Simplified_molecular-input_line-entry_system","/wiki/International_Chemical_Identifier","//upload.wikimedia.org/wikipedia/en/thumb/f/fb/Yes_check.svg/7px-Yes_check.svg.png","//upload.wikimedia.org/wikipedia/en/thumb/f/fb/Yes_check.svg/7px-Yes_check.svg.png","#cite_note-GESTIS-2","/wiki/Molecular_formula","/wiki/Molar_mass","/wiki/Odor","/wiki/Density","/wiki/Melting_point","/wiki/Boiling_point","/wiki/Solubility","/wiki/Water","/wiki/Partition_coefficient","/wiki/Vapor_pressure","/wiki/Henry%27s_law","/wiki/Standard_enthalpy_change_of_formation","/wiki/Standard_enthalpy_change_of_combustion","/wiki/Specific_heat_capacity","/wiki/Material_safety_data_sheet","/wiki/Propane_(data_page)#Material_Safety_Data_Sheet","/wiki/GHS_hazard_pictograms","/wiki/File:GHS-pictogram-flamme.svg","//upload.wikimedia.org/wikipedia/commons/thumb/6/6d/GHS-pictogram-flamme.svg/50px-GHS-pictogram-flamme.svg.png","/wiki/Globally_Harmonized_System_of_Classification_and_Labelling_of_Chemicals","/wiki/GHS_hazard_statement","/wiki/GHS_precautionary_statements","/wiki/Dangerous_Substances_Directive_(67/548/EEC)","/wiki/File:Hazard_F.svg","//upload.wikimedia.org/wikipedia/commons/thumb/0/06/Hazard_F.svg/40px-Hazard_F.svg.png","/wiki/List_of_R-phrases","/wiki/R12:_Extremely_flammable","/wiki/List_of_S-phrases","/wiki/(S2):_Keep_out_of_the_reach_of_children","/wiki/S16:_Keep_away_from_sources_of_ignition_-_No_smoking","/wiki/NFPA_704","/wiki/File:NFPA_704.svg","//upload.wikimedia.org/wikipedia/commons/thumb/6/6f/NFPA_704.svg/75px-NFPA_704.svg.png","/wiki/Flash_point","/wiki/Autoignition_temperature","/wiki/Explosive_limit","/wiki/Ethane","/wiki/Ethyl_iodide","/wiki/N-Propyl_iodide","/wiki/Isopropyl_iodide","/wiki/Butane","/wiki/Butyl_iodide","/wiki/Diiodohydroxypropane","/wiki/Propane_(data_page)","/wiki/Propane_(data_page)#Structure_and_properties","/wiki/Refractive_index","/wiki/Dielectric_constant","/wiki/Propane_(data_page)#Thermodynamic_properties","/wiki/Propane_(data_page)#Spectral_data","/wiki/UV/VIS_spectroscopy","/wiki/Infrared_spectroscopy","/wiki/NMR_spectroscopy","/wiki/Mass_spectrometry","//upload.wikimedia.org/wikipedia/en/thumb/f/fb/Yes_check.svg/14px-Yes_check.svg.png","//en.wikipedia.org/w/index.php?title=Special:ComparePages&rev1=464375285&page2=Propane","/wiki/Wikipedia:WikiProject_Chemicals/Chembox_validation","//upload.wikimedia.org/wikipedia/en/thumb/f/fb/Yes_check.svg/10px-Yes_check.svg.png","//upload.wikimedia.org/wikipedia/commons/thumb/a/a2/X_mark.svg/10px-X_mark.svg.png","/wiki/Standard_state","/wiki/Wikipedia:Chemical_infobox#References","/wiki/Carbon","/wiki/Alkane","/wiki/By-product","/wiki/Natural_gas","/wiki/Petroleum","/wiki/Engines","/wiki/Oxy-gas_torch","/wiki/Barbecue","/wiki/Portable_stove","/wiki/Central_heating","/wiki/Liquefied_petroleum_gas","/wiki/Butane","/wiki/Propylene","/wiki/Butadiene","/wiki/Butene","/wiki/Isobutylene","/wiki/Propene","#cite_note-3","/wiki/Aroma_compound","/wiki/Ethanethiol","#History","#Sources","#Properties_and_reactions","#Energy_content","#Density","#Uses","#Domestic_and_industrial_fuel","#Refrigeration","#In_motor_vehicles","#Motor_fuel","#Other_uses","#Propane_risks_and_alternate_gas_fuels","#Retail_cost","#United_States","#See_also","#References","#External_links","/w/index.php?title=Propane&action=edit&section=1","/wiki/Gasoline","/wiki/Walter_O._Snelling","/wiki/United_States_Bureau_of_Mines","/wiki/Hydrocarbons","/wiki/New_York_Times","/wiki/Gas","#cite_note-4","#cite_note-5","#cite_note-6","/wiki/Chicago_Transit_Authority","#cite_note-7","/wiki/Prop-","/wiki/Propionic_acid","#cite_note-8","/w/index.php?title=Propane&action=edit&section=2","/wiki/By-product","/wiki/Natural_gas","/wiki/Oil_refinery","/wiki/Butane","/wiki/Ethane","/wiki/Cracking_(chemistry)","/wiki/Wikipedia:Citation_needed","/wiki/Natural_gas_storage#Salt_formation","/wiki/Fort_Saskatchewan,_Alberta","/wiki/Mont_Belvieu,_Texas","/wiki/Conway,_Kansas","#cite_note-9","#cite_note-10","/w/index.php?title=Propane&action=edit&section=3","/wiki/Combustion","/wiki/Alkane","/wiki/Carbon_dioxide","/wiki/Carbon_monoxide","/wiki/Carbon_dioxide","/wiki/Natural_gas","/wiki/Higher_Heating_Value","/wiki/Normal_cubic_meter","/wiki/Joule","#cite_note-11","/wiki/Asphyxia","/wiki/Oxygen","/wiki/Gasoline","/wiki/Gigajoule","/wiki/Wikipedia:Citation_needed","/w/index.php?title=Propane&action=edit&section=4","/wiki/Joule#Multiples","#cite_note-12","/wiki/BTU","/wiki/US_gallon","/w/index.php?title=Propane&action=edit&section=5","/w/index.php?title=Propane&action=edit&section=6","/wiki/File:Propane_tank_20lb.jpg","//upload.wikimedia.org/wikipedia/commons/thumb/f/fe/Propane_tank_20lb.jpg/170px-Propane_tank_20lb.jpg","/wiki/File:Propane_tank_20lb.jpg","//bits.wikimedia.org/static-1.21wmf11/skins/common/images/magnify-clip.png","/wiki/Octane_rating","/wiki/Octane_rating","/wiki/Barbecue","/wiki/Portable_stove","/wiki/Boiling_point","/wiki/Carburetor","/wiki/Locomotive","/wiki/Bus","/wiki/Forklift","/wiki/Taxicab","/wiki/Ice_resurfacer","/wiki/Recreational_vehicle","/wiki/Campervan","/wiki/Liquefied_petroleum_gas","/wiki/Ethane","/wiki/Propylene","/wiki/Butane","/wiki/Ethyl_mercaptan","#cite_note-13","#cite_note-14","http://hd5propane.com","#cite_note-15","/w/index.php?title=Propane&action=edit&section=7","/wiki/File:150_gallon_Propane_Tank.jpg","//upload.wikimedia.org/wikipedia/commons/thumb/0/09/150_gallon_Propane_Tank.jpg/150px-150_gallon_Propane_Tank.jpg","/wiki/File:150_gallon_Propane_Tank.jpg","//bits.wikimedia.org/static-1.21wmf11/skins/common/images/magnify-clip.png","/wiki/File:Propane_delivery_truck.jpg","//upload.wikimedia.org/wikipedia/commons/thumb/a/ac/Propane_delivery_truck.jpg/220px-Propane_delivery_truck.jpg","/wiki/File:Propane_delivery_truck.jpg","//bits.wikimedia.org/static-1.21wmf11/skins/common/images/magnify-clip.png","/wiki/File:Propane_retail_06758.JPG","//upload.wikimedia.org/wikipedia/commons/thumb/9/94/Propane_retail_06758.JPG/220px-Propane_retail_06758.JPG","/wiki/File:Propane_retail_06758.JPG","//bits.wikimedia.org/static-1.21wmf11/skins/common/images/magnify-clip.png","/wiki/United_States","/wiki/Wikipedia:Citation_needed","/wiki/AAFES","//en.wikipedia.org/w/index.php?title=Propane&action=edit","#cite_note-16","/w/index.php?title=Propane&action=edit&section=8","/wiki/Off-the-grid","/wiki/Gas_absorption_refrigerator","/wiki/Isobutane","/wiki/Ozone_depletion_potential","/wiki/Global_Warming_Potential","/wiki/Dichlorodifluoromethane","/wiki/Chlorodifluoromethane","/wiki/1,1,1,2-Tetrafluoroethane","/wiki/Chlorofluorocarbon","/wiki/Hydrofluorocarbon","/wiki/Refrigerant","#cite_note-17","/w/index.php?title=Propane&action=edit&section=9","/wiki/Flammability","#cite_note-18","#cite_note-19","#cite_note-20","#cite_note-21","#cite_note-22","#cite_note-23","#cite_note-24","#cite_note-25","#cite_note-26","#cite_note-27","/w/index.php?title=Propane&action=edit&section=10","//upload.wikimedia.org/wikipedia/en/thumb/9/99/Question_book-new.svg/50px-Question_book-new.svg.png","//en.wikipedia.org/w/index.php?title=Propane&action=edit","/wiki/Help:Introduction_to_referencing/1","/wiki/Template:Citation_needed","/wiki/Wikipedia:Verifiability#Burden_of_evidence","/wiki/Autogas","/wiki/Gasoline","/wiki/Diesel_fuel","#cite_note-28","/wiki/Small_engine","/wiki/String_trimmer","/wiki/Lawn_mowers","/wiki/Leaf_blowers","/wiki/Air_pollution","/wiki/Wikipedia:Citation_needed","/w/index.php?title=Propane&action=edit&section=11","/wiki/Petrochemical","/wiki/Steam_cracking","/wiki/Hot_air_balloon","/wiki/Silicon_carbide","/wiki/Paintball_equipment","/w/index.php?title=Propane&action=edit&section=12","/wiki/Critical_temperature","#cite_note-Vapor_Pressure-29","/w/index.php?title=Propane&action=edit&section=13","/w/index.php?title=Propane&action=edit&section=14","//en.wikipedia.org/w/index.php?title=Propane&action=edit","#cite_note-30","/w/index.php?title=Propane&action=edit&section=15","/wiki/Blau_gas","/wiki/Dimethyl_Ether","/wiki/National_Propane_Gas_Association","/wiki/Isopropyl_alcohol","/wiki/Propynol","/w/index.php?title=Propane&action=edit&section=16","#cite_ref-1","http://pubchem.ncbi.nlm.nih.gov/summary/summary.cgi?cid=6334&loc=ec_rcs","http://pubchem.ncbi.nlm.nih.gov/summary/summary.cgi?cid=6334&loc=ec_rcs","#cite_ref-GESTIS_2-0","http://gestis-en.itrust.de/nxt/gateway.dll?f=id$t=default.htm$vid=gestiseng:sdbeng$id=010020","/wiki/Institute_for_Occupational_Safety_and_Health","#cite_ref-3","http://www.astm.org/Standards/D1835.htm","#cite_ref-4","http://query.nytimes.com/gst/abstract.html?res=9C04E3DB1F31E233A25752C0A9629C946396D6CF","http://query.nytimes.com/gst/abstract.html?res=9C04E3DB1F31E233A25752C0A9629C946396D6CF","#cite_ref-5","http://www.npga.org/i4a/pages/index.cfm?pageid=634","http://www.npga.org/i4a/pages/index.cfm?pageid=634","#cite_ref-6","http://www.npga.org/i4a/pages/index.cfm?pageid=634","http://www.npga.org/i4a/pages/index.cfm?pageid=634","/wiki/Wikipedia:Link_rot","#cite_ref-7","http://www.propanecouncil.org/newsroom/fact_sheetsDetail.cfv?id=5","http://www.propanecouncil.org/newsroom/fact_sheetsDetail.cfv?id=5","#cite_ref-8","http://www.etymonline.com/index.php?term=propane","http://www.etymonline.com/index.php?term=propane","#cite_ref-9","http://web.ead.anl.gov/saltcaverns/uses/hcstorage/index.htm","http://web.ead.anl.gov/saltcaverns/uses/hcstorage/index.htm","#cite_ref-10","http://www.propanecouncil.org/what-is-propane/history/","http://www.propanecouncil.org/what-is-propane/history/","#cite_ref-11","http://www.efcf.com/reports/E10.pdf","#cite_ref-12","http://hypertextbook.com/facts/2002/EricLeung.shtml","http://hypertextbook.com/facts/2002/EricLeung.shtml","#cite_ref-13","http://www.amerigas.com/pdfs/safe_eng.pdf","http://www.amerigas.com/pdfs/safe_eng.pdf","#cite_ref-14","http://www.suburbanpropane.com/safety/pdf/propane/SAF%205152%20MATERIAL%20SAFETY%20DATA%20SHEET.pdf","http://www.suburbanpropane.com/safety/pdf/propane/SAF%205152%20MATERIAL%20SAFETY%20DATA%20SHEET.pdf","#cite_ref-15","#cite_ref-16","http://www.propanecouncil.org/uploadedFiles/Ad/Propane%20Market%20Outlook%20_%20Full%20Report.pdf","http://www.propanecouncil.org/uploadedFiles/Ad/Propane%20Market%20Outlook%20_%20Full%20Report.pdf","#cite_ref-17","http://ec.europa.eu/environment/ozone/pdf/hcfc_technical_meeting_summary.pdf","http://ec.europa.eu/environment/ozone/pdf/hcfc_technical_meeting_summary.pdf","#cite_ref-18","http://www.epa.gov/ozone/snap/refrigerants/hc12alng.html","http://www.epa.gov/ozone/snap/refrigerants/hc12alng.html","#cite_ref-19","http://www.vasa.org.au/pdf/memberlibrary/hydrocarbons/hc_white_paper.pdf","/wiki/Wikipedia:Link_rot","#cite_ref-20","http://www.autoacforum.com/MACS/HCwarning.pdf","http://www.autoacforum.com/MACS/HCwarning.pdf","#cite_ref-21","http://www.sae.org/news/releases/05hydrocarbon_warning.htm","http://www.sae.org/news/releases/05hydrocarbon_warning.htm","#cite_ref-22","http://www.shadetreemechanic.com/cc_hydrocarbon_refrigerants.htm","http://www.shadetreemechanic.com/cc_hydrocarbon_refrigerants.htm","#cite_ref-23","http://www.labour.gov.sk.ca/Default.aspx?DN=2fb5ac24-d90e-4408-bf40-559793bd8e96","http://www.labour.gov.sk.ca/Default.aspx?DN=2fb5ac24-d90e-4408-bf40-559793bd8e96","#cite_ref-24","http://www.vasa.org.au/content/refriggas/index.php#Bookmark%202","/wiki/Wikipedia:Link_rot","#cite_ref-25","http://www.energy.qld.gov.au/zone_files/petroleum_pdf/safety_alert025.pdf","http://www.energy.qld.gov.au/zone_files/petroleum_pdf/safety_alert025.pdf","#cite_ref-26","http://www.parliament.nsw.gov.au/prod/parlment/HansArt.nsf/V3Key/LA19971016015","http://www.parliament.nsw.gov.au/prod/parlment/HansArt.nsf/V3Key/LA19971016015","#cite_ref-27","http://www.parliament.nsw.gov.au/prod/parlment/hansart.nsf/V3Key/LC20000629051","http://www.parliament.nsw.gov.au/prod/parlment/hansart.nsf/V3Key/LC20000629051","#cite_ref-28","http://propanecouncil.org/propane-as-fuel/","http://propanecouncil.org/propane-as-fuel/","#cite_ref-Vapor_Pressure_29-0","http://www.engineeringtoolbox.com/propane-vapor-pressure-d_1020.html","http://www.engineeringtoolbox.com/propane-vapor-pressure-d_1020.html","#cite_ref-30","http://tonto.eia.doe.gov/oog/info/hopu/hopu.asp","http://tonto.eia.doe.gov/oog/info/hopu/hopu.asp","/w/index.php?title=Propane&action=edit&section=17","//upload.wikimedia.org/wikipedia/en/thumb/4/4a/Commons-logo.svg/30px-Commons-logo.svg.png","//commons.wikimedia.org/wiki/Propane","http://www.propanecouncil.org","http://www.worldlpgas.com","http://www.inchem.org/documents/icsc/icsc/eics0319.htm","http://www.cdc.gov/niosh/npg/npgd0524.html","http://www.npga.org/i4a/pages/index.cfm?pageid=1","http://www.uklpg.org","http://www.propane101.com/aboutpropane.htm","http://www.propane.ca","/wiki/Template:Alkanes","/wiki/Template_talk:Alkanes","//en.wikipedia.org/w/index.php?title=Template:Alkanes&action=edit","/wiki/Alkane","/wiki/Methane","/wiki/Ethane","/wiki/Butane","/wiki/Pentane","/wiki/Hexane","/wiki/Heptane","/wiki/Octane","/wiki/Nonane","/wiki/Decane","/wiki/Undecane","/wiki/Dodecane","/wiki/Tridecane","/wiki/Tetradecane","/wiki/Pentadecane","/wiki/Hexadecane","/wiki/Heptadecane","/wiki/Icosane","/wiki/Higher_alkanes","/wiki/List_of_straight-chain_alkanes","/wiki/Template:Fuel_gas","/wiki/Template_talk:Fuel_gas","//en.wikipedia.org/w/index.php?title=Template:Fuel_gas&action=edit","/wiki/Fuel_gas","/wiki/History_of_manufactured_gas","/wiki/Coal_gas","/wiki/Coal_gasification","/wiki/Producer_gas","/wiki/Wood_gas","/wiki/Water_gas","/wiki/Mond_gas","/wiki/Pintsch_gas","/wiki/Syngas","/wiki/Blau_gas","/wiki/Biogas","/wiki/Gasification","/wiki/Natural_gas","/wiki/Compressed_natural_gas","/wiki/Liquefied_natural_gas","/wiki/HCNG","/wiki/Liquefied_petroleum_gas","/wiki/Butane","/wiki/Autogas","/wiki/File:Gas_flame.jpg","//upload.wikimedia.org/wikipedia/commons/thumb/1/11/Gas_flame.jpg/90px-Gas_flame.jpg","/wiki/Gas_works","/wiki/Gas_holder","/wiki/Natural-gas_processing","/wiki/Natural_gas_storage","/wiki/Compressor_station","/wiki/Odorizer","/wiki/Gas_meter","/wiki/Gas_lighting","/wiki/Gas_mantle","/wiki/Gas_stove","/wiki/Gas_heater","/wiki/Gas_burner","/wiki/Gas_engine","/wiki/Gas_turbine","/wiki/Bunsen_burner","/wiki/Pilot_light","/wiki/Template:E_number_infobox_930-949","/wiki/Template_talk:E_number_infobox_930-949","//en.wikipedia.org/w/index.php?title=Template:E_number_infobox_930-949&action=edit","/wiki/E_number","/wiki/Food_coloring","/wiki/Preservative","/wiki/Antioxidant","/wiki/Acidity_regulator","/wiki/Thickener","/wiki/Food_additive#Categories","/wiki/Emulsifier","/wiki/PH","/wiki/Acidity_regulator","/wiki/Anti-caking_agent","/wiki/Flavour_enhancer","/wiki/Wax","/wiki/Glazing_agent","/wiki/Improving_agent","/wiki/Packaging_gas","/wiki/Sugar_substitute","/wiki/Foaming_agent","/wiki/Calcium_peroxide","/wiki/Argon","/wiki/Helium","/wiki/Dichlorodifluoromethane","/wiki/Nitrogen","/wiki/Nitrous_oxide","/wiki/Butane","/wiki/Isobutane","/wiki/Oxygen","/wiki/Hydrogen","/wiki/Template:Alternative_propulsion","/wiki/Template_talk:Alternative_propulsion","//en.wikipedia.org/w/index.php?title=Template:Alternative_propulsion&action=edit","/wiki/Alternative_fuel_vehicle","/wiki/Pneumatic_motor","/wiki/Compressed_air_car","/wiki/Compressed-air_vehicle","/wiki/Electric_motor","/wiki/Electric_locomotive#Battery_locomotive","/wiki/Battery_electric_vehicle","/wiki/Cater_MetroTrolley","/wiki/Electric_aircraft","/wiki/Electric_bicycle","/wiki/Electric_boat","/wiki/Electric_car","/wiki/Electric_platform_truck","/wiki/Electric_vehicle","/wiki/Electric_motorcycles_and_scooters","/wiki/Hybrid_electric_vehicle","/wiki/Hybrid_train","/wiki/Motorized_bicycle","/wiki/Neighborhood_Electric_Vehicle","/wiki/Plug-in_electric_vehicle","/wiki/Plug-in_hybrid","/wiki/Solar_vehicle","/wiki/Wind-powered_vehicle","/wiki/Biofuel","/wiki/Internal_combustion_engine","/wiki/Alcohol_fuel","/wiki/Biodiesel","/wiki/Biogas","/wiki/Butanol_fuel","/wiki/Common_ethanol_fuel_mixtures","/wiki/E85","/wiki/Ethanol_fuel","/wiki/Flexible-fuel_vehicle","/wiki/Methanol_economy","/wiki/Methanol_fuel","/wiki/Wood_gas","/wiki/Hydrogen","/wiki/Fuel_cell_vehicle","/wiki/Hydrogen_economy","/wiki/Hydrogen_vehicle","/wiki/Hydrogen_internal_combustion_engine_vehicle","/wiki/Autogas","/wiki/Hybrid_electric_vehicle","/wiki/Liquid_nitrogen_vehicle","/wiki/Natural_gas_vehicle","/wiki/Steam_car","/wiki/Bi-fuel_vehicle","/wiki/Flexible-fuel_vehicle","/wiki/Hybrid_vehicle","/wiki/Multifuel","/wiki/Plug-in_hybrid","/wiki/Who_Killed_the_Electric_Car%3F","/wiki/What_Is_the_Electric_Car%3F","/wiki/Revenge_of_the_Electric_Car","/wiki/Zero-emissions_vehicle","http://en.wikipedia.org/w/index.php?title=Propane&oldid=543702613","/wiki/Help:Categories","/wiki/Category:Alkanes","/wiki/Category:Aerosol_propellants","/wiki/Category:Refrigerants","/wiki/Category:Fuel_gas","/wiki/Category:Hydrocarbons","/wiki/Category:All_articles_with_dead_external_links","/wiki/Category:Articles_with_dead_external_links_from_May_2012","/wiki/Category:Articles_with_dead_external_links_from_October_2010","/wiki/Category:Chemboxes_which_contain_changes_to_watched_fields","/wiki/Category:All_articles_with_unsourced_statements","/wiki/Category:Articles_with_unsourced_statements_from_June_2007","/wiki/Category:Articles_with_unsourced_statements_from_May_2010","/wiki/Category:Articles_with_unsourced_statements_from_December_2008","/wiki/Category:Articles_containing_potentially_dated_statements_from_2007","/wiki/Category:All_articles_containing_potentially_dated_statements","/wiki/Category:Articles_needing_additional_references_from_October_2009","/wiki/Category:All_articles_needing_additional_references","/wiki/Category:Articles_with_unsourced_statements_from_July_2011","/wiki/Category:Articles_containing_potentially_dated_statements_from_March_2013","/w/index.php?title=Special:UserLogin&returnto=Propane&type=signup","/w/index.php?title=Special:UserLogin&returnto=Propane","/wiki/Propane","/wiki/Talk:Propane","#","/wiki/Propane","/w/index.php?title=Propane&action=edit","/w/index.php?title=Propane&action=history","#","/w/index.php","//bits.wikimedia.org/static-1.21wmf11/skins/vector/images/search-ltr.png?303-4","/wiki/Main_Page","/wiki/Main_Page","/wiki/Portal:Contents","/wiki/Portal:Featured_content","/wiki/Portal:Current_events","/wiki/Special:Random","//donate.wikimedia.org/wiki/Special:FundraiserRedirector?utm_source=donate&utm_medium=sidebar&utm_campaign=C13_en.wikipedia.org&uselang=en","/wiki/Help:Contents","/wiki/Wikipedia:About","/wiki/Wikipedia:Community_portal","/wiki/Special:RecentChanges","/wiki/Wikipedia:Contact_us","/wiki/Special:WhatLinksHere/Propane","/wiki/Special:RecentChangesLinked/Propane","/wiki/Wikipedia:File_Upload_Wizard","/wiki/Special:SpecialPages","/w/index.php?title=Propane&oldid=543702613","/w/index.php?title=Propane&action=info","/w/index.php?title=Special:Cite&page=Propane&id=543702613","/w/index.php?title=Special:Book&bookcmd=book_creator&referer=Propane","/w/index.php?title=Special:Book&bookcmd=render_article&arttitle=Propane&oldid=543702613&writer=rl","/w/index.php?title=Propane&printable=yes","//ar.wikipedia.org/wiki/%D8%A8%D8%B1%D9%88%D8%A8%D8%A7%D9%86","//az.wikipedia.org/wiki/Propan","//be.wikipedia.org/wiki/%D0%9F%D1%80%D0%B0%D0%BF%D0%B0%D0%BD","//bg.wikipedia.org/wiki/%D0%9F%D1%80%D0%BE%D0%BF%D0%B0%D0%BD","//bs.wikipedia.org/wiki/Propan","//ca.wikipedia.org/wiki/Prop%C3%A0","//cs.wikipedia.org/wiki/Propan","//da.wikipedia.org/wiki/Propan","//de.wikipedia.org/wiki/Propan","//et.wikipedia.org/wiki/Propaan","//el.wikipedia.org/wiki/%CE%A0%CF%81%CE%BF%CF%80%CE%AC%CE%BD%CE%B9%CE%BF","//es.wikipedia.org/wiki/Propano","//eo.wikipedia.org/wiki/Propano","//eu.wikipedia.org/wiki/Propano","//fa.wikipedia.org/wiki/%D9%BE%D8%B1%D9%88%D9%BE%D8%A7%D9%86","//fr.wikipedia.org/wiki/Propane","//gl.wikipedia.org/wiki/Propano","//ko.wikipedia.org/wiki/%ED%94%84%EB%A1%9C%ED%8E%98%EC%9D%B8","//hi.wikipedia.org/wiki/%E0%A4%AA%E0%A5%8D%E0%A4%B0%E0%A5%8B%E0%A4%AA%E0%A5%87%E0%A4%A8","//hr.wikipedia.org/wiki/Propan","//id.wikipedia.org/wiki/Propana","//it.wikipedia.org/wiki/Propano","//he.wikipedia.org/wiki/%D7%A4%D7%A8%D7%95%D7%A4%D7%90%D7%9F","//kk.wikipedia.org/wiki/%D0%9F%D1%80%D0%BE%D0%BF%D0%B0%D0%BD","//ku.wikipedia.org/wiki/Propan","//la.wikipedia.org/wiki/Propanum","//lv.wikipedia.org/wiki/Prop%C4%81ns","//lb.wikipedia.org/wiki/Propan","//lt.wikipedia.org/wiki/Propanas","//hu.wikipedia.org/wiki/Prop%C3%A1n","//mk.wikipedia.org/wiki/%D0%9F%D1%80%D0%BE%D0%BF%D0%B0%D0%BD","//ml.wikipedia.org/wiki/%E0%B4%AA%E0%B5%8D%E0%B4%B0%E0%B5%8A%E0%B4%AA%E0%B5%86%E0%B4%AF%E0%B5%8D%E0%B5%BB","//ms.wikipedia.org/wiki/Propana","//nl.wikipedia.org/wiki/Propaan","//ja.wikipedia.org/wiki/%E3%83%97%E3%83%AD%E3%83%91%E3%83%B3","//no.wikipedia.org/wiki/Propan","//nn.wikipedia.org/wiki/Propan","//nds.wikipedia.org/wiki/Propan","//pl.wikipedia.org/wiki/Propan","//pt.wikipedia.org/wiki/Propano","//ro.wikipedia.org/wiki/Propan","//ru.wikipedia.org/wiki/%D0%9F%D1%80%D0%BE%D0%BF%D0%B0%D0%BD","//stq.wikipedia.org/wiki/Propan","//simple.wikipedia.org/wiki/Propane","//sk.wikipedia.org/wiki/Prop%C3%A1n","//sl.wikipedia.org/wiki/Propan","//sr.wikipedia.org/wiki/%D0%9F%D1%80%D0%BE%D0%BF%D0%B0%D0%BD","//sh.wikipedia.org/wiki/Propan","//fi.wikipedia.org/wiki/Propaani","//sv.wikipedia.org/wiki/Propan","//ta.wikipedia.org/wiki/%E0%AE%AA%E0%AF%81%E0%AE%B0%E0%AF%8A%E0%AE%AA%E0%AF%8D%E0%AE%AA%E0%AF%87%E0%AE%A9%E0%AF%8D","//tr.wikipedia.org/wiki/Propan","//uk.wikipedia.org/wiki/%D0%9F%D1%80%D0%BE%D0%BF%D0%B0%D0%BD","//ur.wikipedia.org/wiki/Propane","//vi.wikipedia.org/wiki/Pr%C3%B4pan","//zh.wikipedia.org/wiki/%E4%B8%99%E7%83%B7","//www.wikidata.org/wiki/Special:ItemByTitle/enwiki/Propane","//en.wikipedia.org/wiki/Wikipedia:Text_of_Creative_Commons_Attribution-ShareAlike_3.0_Unported_License","//creativecommons.org/licenses/by-sa/3.0/","//wikimediafoundation.org/wiki/Terms_of_Use","//www.wikimediafoundation.org/","//en.wikipedia.org/wiki/Wikipedia:Contact_us","//wikimediafoundation.org/wiki/Privacy_policy","/wiki/Wikipedia:About","/wiki/Wikipedia:General_disclaimer","http://en.m.wikipedia.org/wiki/Propane","//wikimediafoundation.org/","//bits.wikimedia.org/images/wikimedia-button.png","//www.mediawiki.org/","//bits.wikimedia.org/static-1.21wmf11/skins/common/images/poweredby_mediawiki_88x31.png","//bits.wikimedia.org/en.wikipedia.org/load.php?debug=false&lang=en&modules=skins.vector&only=scripts&skin=vector&*","/w/index.php?title=MediaWiki:Gadget-ReferenceTooltips.js&action=raw&ctype=text/javascript&508635914","//bits.wikimedia.org/en.wikipedia.org/load.php?debug=false&lang=en&modules=site&only=scripts&skin=vector&*"],"instances":["chemistry"],"pdf":["http://www.efcf.com/reports/E10.pdf","http://www.amerigas.com/pdfs/safe_eng.pdf","http://www.amerigas.com/pdfs/safe_eng.pdf","http://www.suburbanpropane.com/safety/pdf/propane/SAF%205152%20MATERIAL%20SAFETY%20DATA%20SHEET.pdf","http://www.suburbanpropane.com/safety/pdf/propane/SAF%205152%20MATERIAL%20SAFETY%20DATA%20SHEET.pdf","http://www.propanecouncil.org/uploadedFiles/Ad/Propane%20Market%20Outlook%20_%20Full%20Report.pdf","http://www.propanecouncil.org/uploadedFiles/Ad/Propane%20Market%20Outlook%20_%20Full%20Report.pdf","http://ec.europa.eu/environment/ozone/pdf/hcfc_technical_meeting_summary.pdf","http://ec.europa.eu/environment/ozone/pdf/hcfc_technical_meeting_summary.pdf","http://www.vasa.org.au/pdf/memberlibrary/hydrocarbons/hc_white_paper.pdf","http://www.autoacforum.com/MACS/HCwarning.pdf","http://www.autoacforum.com/MACS/HCwarning.pdf","http://www.energy.qld.gov.au/zone_files/petroleum_pdf/safety_alert025.pdf","http://www.energy.qld.gov.au/zone_files/petroleum_pdf/safety_alert025.pdf"],"categories":["Alkanes","Aerosol propellants","Refrigerants","Fuel gas","Hydrocarbons"],"headings":["History","Sources","Properties and reactions","Uses","Propane risks and alternate gas fuels","Retail cost","See also","References","External links"],"image":["//upload.wikimedia.org/wikipedia/commons/thumb/7/7d/Propane-2D-Skeletal.svg/100px-Propane-2D-Skeletal.svg.png","//upload.wikimedia.org/wikipedia/commons/thumb/9/99/PropaneFull.png/100px-PropaneFull.png","//upload.wikimedia.org/wikipedia/commons/thumb/e/e4/Propane-3D-balls-B.png/100px-Propane-3D-balls-B.png","//upload.wikimedia.org/wikipedia/commons/thumb/6/6e/Propane-3D-vdW-B.png/100px-Propane-3D-vdW-B.png","//upload.wikimedia.org/wikipedia/en/thumb/f/fb/Yes_check.svg/7px-Yes_check.svg.png","//upload.wikimedia.org/wikipedia/en/thumb/f/fb/Yes_check.svg/7px-Yes_check.svg.png","//upload.wikimedia.org/wikipedia/en/thumb/f/fb/Yes_check.svg/7px-Yes_check.svg.png","//upload.wikimedia.org/wikipedia/en/thumb/f/fb/Yes_check.svg/7px-Yes_check.svg.png","//upload.wikimedia.org/wikipedia/en/thumb/f/fb/Yes_check.svg/7px-Yes_check.svg.png","//upload.wikimedia.org/wikipedia/en/thumb/f/fb/Yes_check.svg/7px-Yes_check.svg.png","//upload.wikimedia.org/wikipedia/en/thumb/f/fb/Yes_check.svg/7px-Yes_check.svg.png","//upload.wikimedia.org/wikipedia/en/thumb/f/fb/Yes_check.svg/7px-Yes_check.svg.png","//upload.wikimedia.org/wikipedia/commons/thumb/6/6d/GHS-pictogram-flamme.svg/50px-GHS-pictogram-flamme.svg.png","//upload.wikimedia.org/wikipedia/commons/thumb/0/06/Hazard_F.svg/40px-Hazard_F.svg.png","//upload.wikimedia.org/wikipedia/commons/thumb/6/6f/NFPA_704.svg/75px-NFPA_704.svg.png","//upload.wikimedia.org/wikipedia/en/thumb/f/fb/Yes_check.svg/14px-Yes_check.svg.png","//upload.wikimedia.org/wikipedia/en/thumb/f/fb/Yes_check.svg/10px-Yes_check.svg.png","//upload.wikimedia.org/wikipedia/commons/thumb/a/a2/X_mark.svg/10px-X_mark.svg.png","//upload.wikimedia.org/wikipedia/commons/thumb/f/fe/Propane_tank_20lb.jpg/170px-Propane_tank_20lb.jpg","//bits.wikimedia.org/static-1.21wmf11/skins/common/images/magnify-clip.png","//upload.wikimedia.org/wikipedia/commons/thumb/0/09/150_gallon_Propane_Tank.jpg/150px-150_gallon_Propane_Tank.jpg","//bits.wikimedia.org/static-1.21wmf11/skins/common/images/magnify-clip.png","//upload.wikimedia.org/wikipedia/commons/thumb/a/ac/Propane_delivery_truck.jpg/220px-Propane_delivery_truck.jpg","//bits.wikimedia.org/static-1.21wmf11/skins/common/images/magnify-clip.png","//upload.wikimedia.org/wikipedia/commons/thumb/9/94/Propane_retail_06758.JPG/220px-Propane_retail_06758.JPG","//bits.wikimedia.org/static-1.21wmf11/skins/common/images/magnify-clip.png","//upload.wikimedia.org/wikipedia/en/thumb/9/99/Question_book-new.svg/50px-Question_book-new.svg.png","//upload.wikimedia.org/wikipedia/en/thumb/4/4a/Commons-logo.svg/30px-Commons-logo.svg.png","//upload.wikimedia.org/wikipedia/commons/thumb/1/11/Gas_flame.jpg/90px-Gas_flame.jpg","//bits.wikimedia.org/static-1.21wmf11/skins/vector/images/search-ltr.png?303-4","//bits.wikimedia.org/images/wikimedia-button.png","//bits.wikimedia.org/static-1.21wmf11/skins/common/images/poweredby_mediawiki_88x31.png"],"tags":[["cracking","chemistry"]],"members":["cracking"],"related":["Diiodohydroxypropane","Carbon","Alkane","By-product","Natural_gas","Petroleum","Engines","Oxy-gas_torch","Barbecue","Portable_stove","Central_heating","Liquefied_petroleum_gas","Butane","Propylene","Butadiene","Butene","Isobutylene","Propene","Aroma_compound","Ethanethiol","Gasoline","Walter_O._Snelling","United_States_Bureau_of_Mines","Hydrocarbons","Gas","Chicago_Transit_Authority","Prop-","Propionic_acid","By-product","Natural_gas","Oil_refinery","Butane","Ethane","Cracking_(chemistry)","Fort_Saskatchewan,_Alberta","Mont_Belvieu,_Texas","Conway,_Kansas","Combustion","Alkane","Carbon_dioxide","Carbon_monoxide","Carbon_dioxide","Natural_gas","Higher_Heating_Value","Normal_cubic_meter","Joule","Asphyxia","Oxygen","Gasoline","Gigajoule","BTU","US_gallon","Octane_rating","Octane_rating","Barbecue","Portable_stove","Boiling_point","Carburetor","Locomotive","Bus","Forklift","Taxicab","Ice_resurfacer","Recreational_vehicle","Campervan","Liquefied_petroleum_gas","Ethane","Propylene","Butane","Ethyl_mercaptan","AAFES","Off-the-grid","Gas_absorption_refrigerator","Isobutane","Ozone_depletion_potential","Global_Warming_Potential","Dichlorodifluoromethane","Chlorodifluoromethane","1,1,1,2-Tetrafluoroethane","Chlorofluorocarbon","Hydrofluorocarbon","Refrigerant","Flammability","Gasoline","Diesel_fuel","Small_engine","String_trimmer","Lawn_mowers","Leaf_blowers","Air_pollution","Petrochemical","Steam_cracking","Hot_air_balloon","Silicon_carbide","Paintball_equipment","Critical_temperature","Blau_gas","Dimethyl_Ether","National_Propane_Gas_Association","Isopropyl_alcohol","Propynol","Hank_Hill"]}