{"cursor":"6466","size":15,"audio":[],"currentlang":"en","article":"{{chembox\n| verifiedrevid = 435630162 Name = Malondialdehyde ImageFile =\n| Malondialdehyde.png IUPACName = propanedial Section1 = {{Chembox Identifiers\n| Abbreviations = MDA CASNo_Ref = CASNo = 542-78-9 PubChem = 10964 KEGG_Ref =\n| KEGG = C19440 SMILES = C(C=O)C=O ChemSpiderID = 10499 InChI = 1/C3H4O2/c4-2-1-3-5/h2-\n| 3H,1H2 InChIKey = WSMYVTOQOOLQHP-UHFFFAOYAU StdInChI = 1S/C3H4O2/c4-2-1-3-5/h2-\n| 3H,1H2 StdInChIKey = WSMYVTOQOOLQHP-UHFFFAOYSA-N\n  }}\n| Section2 = {{Chembox Properties C=3|H=4|O=2 MeltingPtC = 72 Density = 0.991\n| g/mL BoilingPtC = 108\n  }}\n| Section3 = {{Chembox Related Function = alkenals OtherFunctn = Glucic\n| acid\n4-Hydroxynonenal }} }}\n\n'Malondialdehyde' is the organic compound with the formula\nCH 2(CHO) 2. The structure of this species is more complex\nthan this formula suggests. This reactive species occurs naturally and is a\nmarker for oxidative stress.\n","linknr":214,"url":"Propanedial","recorded":1374780284,"links":["/w/index.php?title=Malondialdehyde&action=edit","/w/index.php?title=Malondialdehyde&action=edit","//bits.wikimedia.org/favicon/wikipedia.ico","/w/opensearch_desc.php","//en.wikipedia.org/w/api.php?action=rsd","//creativecommons.org/licenses/by-sa/3.0/","/w/index.php?title=Special:RecentChanges&feed=atom","/wiki/Malondialdehyde","//bits.wikimedia.org/en.wikipedia.org/load.php?debug=false&lang=en&modules=ext.gadget.DRN-wizard%2CReferenceTooltips%2Ccharinsert%2Cteahouse%7Cext.rtlcite%2Cwikihiero%7Cext.uls.nojs%7Cmediawiki.legacy.commonPrint%2Cshared%7Cmw.PopUpMediaTransform%7Cskins.vector&only=styles&skin=vector&*","//bits.wikimedia.org/en.wikipedia.org/load.php?debug=false&lang=en&modules=site&only=styles&skin=vector&*","//bits.wikimedia.org/en.wikipedia.org/load.php?debug=false&lang=en&modules=startup&only=scripts&skin=vector&*","//bits.wikimedia.org/geoiplookup","//meta.wikimedia.org","/w/index.php?title=Propanedial&redirect=no","#mw-navigation","#p-search","/wiki/File:Malondialdehyde.png","//upload.wikimedia.org/wikipedia/commons/thumb/4/43/Malondialdehyde.png/200px-Malondialdehyde.png","/wiki/International_Union_of_Pure_and_Applied_Chemistry_nomenclature","/wiki/CAS_registry_number","http://www.commonchemistry.org/ChemicalDetail.aspx?ref=542-78-9","//upload.wikimedia.org/wikipedia/en/thumb/f/fb/Yes_check.svg/7px-Yes_check.svg.png","/wiki/PubChem","http://pubchem.ncbi.nlm.nih.gov/summary/summary.cgi?cid=10964","/wiki/ChemSpider","http://www.chemspider.com/10499","/wiki/KEGG","http://www.kegg.jp/entry/C19440","//upload.wikimedia.org/wikipedia/en/thumb/f/fb/Yes_check.svg/7px-Yes_check.svg.png","/wiki/Jmol","http://chemapps.stolaf.edu/jmol/jmol.php?model=C%28C%3DO%29C%3DO","/wiki/Simplified_molecular-input_line-entry_system","/wiki/International_Chemical_Identifier","/wiki/Molecular_formula","/wiki/Molar_mass","/wiki/Density","/wiki/Melting_point","/wiki/Boiling_point","/wiki/Glucic_acid","/wiki/4-Hydroxynonenal","//upload.wikimedia.org/wikipedia/en/thumb/f/fb/Yes_check.svg/14px-Yes_check.svg.png","//en.wikipedia.org/w/index.php?title=Special:ComparePages&rev1=435630162&page2=Malondialdehyde","/wiki/Wikipedia:WikiProject_Chemicals/Chembox_validation","//upload.wikimedia.org/wikipedia/en/thumb/f/fb/Yes_check.svg/10px-Yes_check.svg.png","//upload.wikimedia.org/wikipedia/commons/thumb/a/a2/X_mark.svg/10px-X_mark.svg.png","/wiki/Standard_state","/wiki/Wikipedia:Chemical_infobox#References","/wiki/Organic_compound","/wiki/Chemical_formula","/wiki/Oxidative_stress","#Structure_and_synthesis","#Biochemistry","#Analysis","#Hazards_and_pathology","#See_also","#References","/w/index.php?title=Malondialdehyde&action=edit&section=1","/wiki/Enol","#cite_note-eEROS-1","#cite_note-eEROS-1","/wiki/Reactive_oxygen_species","#cite_note-2","/w/index.php?title=Malondialdehyde&action=edit&section=2","/wiki/Reactive_oxygen_species","/wiki/Polyunsaturated_fat","#cite_note-3","/wiki/Aldehyde","/w/index.php?title=Advanced_lipoxidation_end-products&action=edit&redlink=1","/wiki/Advanced_glycation_end_product","#cite_note-4","/wiki/Oxidative_stress","#cite_note-5","#cite_note-6","/wiki/Deoxyadenosine","/wiki/Deoxyguanosine","/wiki/DNA_adducts","/wiki/M1G","/wiki/Mutagenic","#cite_note-martnett-7","/wiki/ALDH1A1","/w/index.php?title=Malondialdehyde&action=edit&section=3","/wiki/TBARS","/wiki/Thiobarbituric_acid","#cite_note-eEROS-1","#cite_note-8","#cite_note-eEROS-1","/w/index.php?title=Malondialdehyde&action=edit&section=4","#cite_note-9","#cite_note-10","/wiki/Cornea","/wiki/Keratoconus","/wiki/Bullous_keratopathy","#cite_note-pmid11850437-11","/wiki/Osteoarthritis","#cite_note-pmid17686167-12","/w/index.php?title=Malondialdehyde&action=edit&section=5","/wiki/Methylglyoxal","/wiki/4-Hydroxynonenal","/w/index.php?title=Malondialdehyde&action=edit&section=6","#cite_ref-eEROS_1-0","#cite_ref-eEROS_1-1","#cite_ref-eEROS_1-2","#cite_ref-eEROS_1-3","/wiki/Digital_object_identifier","http://dx.doi.org/10.1002%2F047084289X.rm013.pub2","#cite_ref-2","#cite_ref-3","/wiki/Digital_object_identifier","http://dx.doi.org/10.1021%2Fjo00912a038","/wiki/PubMed_Identifier","//www.ncbi.nlm.nih.gov/pubmed/1185332","#cite_ref-4","/wiki/Digital_object_identifier","http://dx.doi.org/10.1016%2Fj.pbi.2007.04.019","/wiki/PubMed_Identifier","//www.ncbi.nlm.nih.gov/pubmed/17646124","#cite_ref-5","/wiki/Digital_object_identifier","http://dx.doi.org/10.3109%2F10715769809065821","/wiki/PubMed_Identifier","//www.ncbi.nlm.nih.gov/pubmed/9736317","#cite_ref-6","/wiki/Digital_object_identifier","http://dx.doi.org/10.1016%2Fj.numecd.2005.05.003","/wiki/PubMed_Identifier","//www.ncbi.nlm.nih.gov/pubmed/16054557","#cite_ref-martnett_7-0","/wiki/Digital_object_identifier","http://dx.doi.org/10.1016%2FS0027-5107%2899%2900010-X","/wiki/PubMed_Identifier","//www.ncbi.nlm.nih.gov/pubmed/10064852","#cite_ref-8","http://www.amdcc.org/shared/showFile.aspx?doctypeid=3&docid=33","/wiki/Wikipedia:Link_rot","#cite_ref-9","#cite_ref-10","#cite_ref-pmid11850437_11-0","http://www.jhc.org/cgi/pmidlookup?view=long&pmid=11850437","/wiki/J._Histochem._Cytochem.","/wiki/Digital_object_identifier","http://dx.doi.org/10.1177%2F002215540205000306","/wiki/PubMed_Identifier","//www.ncbi.nlm.nih.gov/pubmed/11850437","#cite_ref-pmid17686167_12-0","http://arthritis-research.com/content/9/4/R76","/w/index.php?title=Arthritis_Res._Ther.&action=edit&redlink=1","/wiki/Digital_object_identifier","http://dx.doi.org/10.1186%2Far2274","/wiki/PubMed_Central","//www.ncbi.nlm.nih.gov/pmc/articles/PMC2206377","/wiki/PubMed_Identifier","//www.ncbi.nlm.nih.gov/pubmed/17686167","//en.wikipedia.org/w/index.php?title=Special:CentralAutoLogin/start&type=1x1&from=enwiki","http://en.wikipedia.org/w/index.php?title=Malondialdehyde&oldid=549278635","/wiki/Help:Categories","/wiki/Category:Aldehydes","/wiki/Category:All_articles_with_dead_external_links","/wiki/Category:Articles_with_dead_external_links_from_April_2012","/w/index.php?title=Special:UserLogin&returnto=Malondialdehyde&type=signup","/w/index.php?title=Special:UserLogin&returnto=Malondialdehyde","/wiki/Malondialdehyde","/wiki/Talk:Malondialdehyde","#","/wiki/Malondialdehyde","/w/index.php?title=Malondialdehyde&action=edit","/w/index.php?title=Malondialdehyde&action=history","#","/w/index.php","//bits.wikimedia.org/static-1.22wmf10/skins/vector/images/search-ltr.png?303-4","/wiki/Main_Page","/wiki/Main_Page","/wiki/Portal:Contents","/wiki/Portal:Featured_content","/wiki/Portal:Current_events","/wiki/Special:Random","//donate.wikimedia.org/wiki/Special:FundraiserRedirector?utm_source=donate&utm_medium=sidebar&utm_campaign=C13_en.wikipedia.org&uselang=en","/wiki/Help:Contents","/wiki/Wikipedia:About","/wiki/Wikipedia:Community_portal","/wiki/Special:RecentChanges","//en.wikipedia.org/wiki/Wikipedia:Contact_us","/wiki/Special:WhatLinksHere/Malondialdehyde","/wiki/Special:RecentChangesLinked/Malondialdehyde","/wiki/Wikipedia:File_Upload_Wizard","/wiki/Special:SpecialPages","/w/index.php?title=Malondialdehyde&oldid=549278635","/w/index.php?title=Malondialdehyde&action=info","//www.wikidata.org/wiki/Q418661","/w/index.php?title=Special:Cite&page=Malondialdehyde&id=549278635","/w/index.php?title=Special:Book&bookcmd=book_creator&referer=Malondialdehyde","/w/index.php?title=Special:Book&bookcmd=render_article&arttitle=Malondialdehyde&oldid=549278635&writer=rl","/w/index.php?title=Malondialdehyde&printable=yes","//de.wikipedia.org/wiki/Malondialdehyd","//fr.wikipedia.org/wiki/Malondiald%C3%A9hyde","//ja.wikipedia.org/wiki/%E3%83%9E%E3%83%AD%E3%83%B3%E3%82%B8%E3%82%A2%E3%83%AB%E3%83%87%E3%83%92%E3%83%89","//ru.wikipedia.org/wiki/%D0%9C%D0%B0%D0%BB%D0%BE%D0%BD%D0%B4%D0%B8%D0%B0%D0%BB%D1%8C%D0%B4%D0%B5%D0%B3%D0%B8%D0%B4","//fi.wikipedia.org/wiki/Malonidialdehydi","//zh.wikipedia.org/wiki/%E4%B8%99%E4%BA%8C%E9%86%9B","#","//www.wikidata.org/wiki/Q418661#sitelinks-wikipedia","//en.wikipedia.org/wiki/Wikipedia:Text_of_Creative_Commons_Attribution-ShareAlike_3.0_Unported_License","//creativecommons.org/licenses/by-sa/3.0/","//wikimediafoundation.org/wiki/Terms_of_Use","//wikimediafoundation.org/wiki/Privacy_policy","//www.wikimediafoundation.org/","//wikimediafoundation.org/wiki/Privacy_policy","/wiki/Wikipedia:About","/wiki/Wikipedia:General_disclaimer","//en.wikipedia.org/wiki/Wikipedia:Contact_us","//en.m.wikipedia.org/wiki/Malondialdehyde","//wikimediafoundation.org/","//bits.wikimedia.org/images/wikimedia-button.png","//www.mediawiki.org/","//bits.wikimedia.org/static-1.22wmf10/skins/common/images/poweredby_mediawiki_88x31.png","//bits.wikimedia.org/en.wikipedia.org/load.php?debug=false&lang=en&modules=site&only=scripts&skin=vector&*"],"instances":[],"pdf":[],"categories":["Aldehydes"],"headings":["Structure and synthesis","Biochemistry","Hazards and pathology","See also","References"],"image":["//upload.wikimedia.org/wikipedia/commons/thumb/4/43/Malondialdehyde.png/200px-Malondialdehyde.png","//upload.wikimedia.org/wikipedia/en/thumb/f/fb/Yes_check.svg/7px-Yes_check.svg.png","//upload.wikimedia.org/wikipedia/en/thumb/f/fb/Yes_check.svg/7px-Yes_check.svg.png","//upload.wikimedia.org/wikipedia/en/thumb/f/fb/Yes_check.svg/14px-Yes_check.svg.png","//upload.wikimedia.org/wikipedia/en/thumb/f/fb/Yes_check.svg/10px-Yes_check.svg.png","//upload.wikimedia.org/wikipedia/commons/thumb/a/a2/X_mark.svg/10px-X_mark.svg.png","//en.wikipedia.org/w/index.php?title=Special:CentralAutoLogin/start&type=1x1&from=enwiki","//bits.wikimedia.org/static-1.22wmf10/skins/vector/images/search-ltr.png?303-4","//bits.wikimedia.org/images/wikimedia-button.png","//bits.wikimedia.org/static-1.22wmf10/skins/common/images/poweredby_mediawiki_88x31.png"],"tags":[],"members":[],"related":["Glucic_acid","4-Hydroxynonenal","Organic_compound","Chemical_formula","Oxidative_stress","Enol","Reactive_oxygen_species","Reactive_oxygen_species","Polyunsaturated_fat","Aldehyde","Advanced_lipoxidation_end-products","Advanced_glycation_end_product","Oxidative_stress","Deoxyadenosine","Deoxyguanosine","DNA_adducts","M1G","Mutagenic","ALDH1A1","TBARS","Thiobarbituric_acid","Cornea","Keratoconus","Bullous_keratopathy","Osteoarthritis","Methylglyoxal","4-Hydroxynonenal"]}