{"cursor":"9843","size":15,"audio":[],"currentlang":"en","article":"{{chembox\n| Verifiedfields = changed Watchedfields = changed verifiedrevid = 417697408\n|ImageFile=Lauric acid.png |ImageSize= |ImageFile2=Lauric-acid-3D-balls.png\n|IUPACName=dodecanoic acid |OtherNames=n-Dodecanoic acid; Dodecylic acid;\nDodecoic acid; Laurostearic acid; Vulvic acid; 1-Undecanecarboxylic acid;\nDuodecylic acid; C12:0 (Lipid numbers) |Section1= {{Chembox Identifiers\n| CASNo_Ref = CASNo=143-07-7 ChEMBL_Ref = ChEMBL = 108766 PubChem=3893\n| ChemSpiderID_Ref = ChemSpiderID = 3756 SMILES = O=C(O)CCCCCCCCCCC InChI = 1/C12H24O2/c1-2-3-4-5-6-7-8-9-10-11-12(13)14/h2-\n| 11H2,1H3,(H,13,14) InChIKey = POULHZVOKOAJMA-UHFFFAOYAP StdInChI_Ref =\n| StdInChI = 1S/C12H24O2/c1-2-3-4-5-6-7-8-9-10-11-12(13)14/h2-11H2,1H3,(H,13,14)\n| StdInChIKey_Ref = StdInChIKey = POULHZVOKOAJMA-UHFFFAOYSA-N\n}} |Section2= {{Chembox Properties\n| Formula=C 12 H24 O2 Structural\n| Formula=CH 3(CH 2) 10 CO 2H\n| MolarMass=200.31776 Appearance= white powder Odor = slight odor of bay oil\n| Density=0.880 g/cm 3 MeltingPt=43.2 °C BoilingPt=298.9 °C\n| Viscosity = 7.30 mPa·s at 323 K RefractIndex = 1.423 Solubility= 0.006 g/100\n| mL (20 °C)\n}} |Section3= {{Chembox Hazards\n| MainHazards= FlashPt=≥ 110 °C Autoignition= NFPA-H = 1 NFPA-F = 1 NFPA-R = 1\n| NFPA-O =\n}}\n| Section4 = {{Chembox Other OtherCpds = Glyceryl laurate}}\n}} 'Lauric acid' (systematically: dodecanoic acid), the saturated fatty acid\nwith a 12-carbon atom chain, thus falling into the medium chain fatty acids, is\na white, powdery solid with a faint odor of bay oil or soap.\n","linknr":343,"url":"laurate","recorded":1364115015,"links":["/w/index.php?title=Lauric_acid&action=edit","/w/index.php?title=Lauric_acid&action=edit","//en.wikipedia.org/apple-touch-icon.png","//bits.wikimedia.org/favicon/wikipedia.ico","/w/opensearch_desc.php","//en.wikipedia.org/w/api.php?action=rsd","//creativecommons.org/licenses/by-sa/3.0/","/w/index.php?title=Special:RecentChanges&feed=atom","/wiki/Lauric_acid","//bits.wikimedia.org/en.wikipedia.org/load.php?debug=false&lang=en&modules=ext.gadget.DRN-wizard%2CReferenceTooltips%2Ccharinsert%2Cteahouse%7Cext.wikihiero%7Cmediawiki.legacy.commonPrint%2Cshared%7Cmw.PopUpMediaTransform%7Cskins.vector&only=styles&skin=vector&*","//bits.wikimedia.org/en.wikipedia.org/load.php?debug=false&lang=en&modules=site&only=styles&skin=vector&*","//bits.wikimedia.org/en.wikipedia.org/load.php?debug=false&lang=en&modules=startup&only=scripts&skin=vector&*","//bits.wikimedia.org/geoiplookup","//meta.wikimedia.org","/w/index.php?title=Laurate&redirect=no","#mw-head","#p-search","/wiki/File:Lauric_acid.png","//upload.wikimedia.org/wikipedia/commons/thumb/7/7f/Lauric_acid.png/200px-Lauric_acid.png","/wiki/File:Lauric-acid-3D-balls.png","//upload.wikimedia.org/wikipedia/commons/thumb/4/48/Lauric-acid-3D-balls.png/200px-Lauric-acid-3D-balls.png","/wiki/International_Union_of_Pure_and_Applied_Chemistry_nomenclature","/wiki/Fatty_acid#Nomenclature","/wiki/CAS_registry_number","http://www.commonchemistry.org/ChemicalDetail.aspx?ref=143-07-7","//upload.wikimedia.org/wikipedia/en/thumb/f/fb/Yes_check.svg/7px-Yes_check.svg.png","/wiki/PubChem","http://pubchem.ncbi.nlm.nih.gov/summary/summary.cgi?cid=3893","/wiki/ChemSpider","http://www.chemspider.com/3756","//upload.wikimedia.org/wikipedia/commons/thumb/a/a2/X_mark.svg/7px-X_mark.svg.png","/wiki/ChEMBL","https://www.ebi.ac.uk/chembldb/index.php/compound/inspect/CHEMBL108766","//upload.wikimedia.org/wikipedia/commons/thumb/a/a2/X_mark.svg/7px-X_mark.svg.png","/wiki/Jmol","http://chemapps.stolaf.edu/jmol/jmol.php?model=O%3DC%28O%29CCCCCCCCCCC","/wiki/Simplified_molecular-input_line-entry_system","/wiki/International_Chemical_Identifier","//upload.wikimedia.org/wikipedia/commons/thumb/a/a2/X_mark.svg/7px-X_mark.svg.png","//upload.wikimedia.org/wikipedia/commons/thumb/a/a2/X_mark.svg/7px-X_mark.svg.png","/wiki/Chemical_formula","/wiki/Molar_mass","/wiki/Odor","/wiki/Bay_oil","/wiki/Density","/wiki/Melting_point","#cite_note-1","/wiki/Boiling_point","/wiki/Solubility","/wiki/Water","/wiki/Refractive_index","/wiki/Viscosity","/wiki/NFPA_704","/wiki/File:NFPA_704.svg","//upload.wikimedia.org/wikipedia/commons/thumb/6/6f/NFPA_704.svg/75px-NFPA_704.svg.png","/wiki/Flash_point","/wiki/Glyceryl_laurate","//upload.wikimedia.org/wikipedia/commons/thumb/a/a2/X_mark.svg/14px-X_mark.svg.png","//en.wikipedia.org/w/index.php?title=Special:ComparePages&rev1=417697408&page2=Lauric+acid","/wiki/Wikipedia:WikiProject_Chemicals/Chembox_validation","//upload.wikimedia.org/wikipedia/en/thumb/f/fb/Yes_check.svg/10px-Yes_check.svg.png","//upload.wikimedia.org/wikipedia/commons/thumb/a/a2/X_mark.svg/10px-X_mark.svg.png","/wiki/Standard_state","/wiki/Wikipedia:Chemical_infobox#References","/wiki/Saturated_fat","/wiki/Fatty_acid","/wiki/Medium-chain_triglycerides","#Occurrence","#Properties","#Niche_uses","#Potential_medicinal_properties","#References","#Appendix:_occurrence_of_lauric_acid_in_various_foods","#Further_reading","/w/index.php?title=Lauric_acid&action=edit&section=1","/wiki/Triglyceride","/wiki/Coconut_oil","/wiki/Palm_kernel_oil","/wiki/Palm_oil","#cite_note-lexicon-2","#cite_note-Ullmann-3","/wiki/Human_breast_milk","#cite_note-lexicon-2","/w/index.php?title=Lauric_acid&action=edit&section=2","/wiki/Fatty_acid","/wiki/Soap","/wiki/Cosmetics","/wiki/Sodium_hydroxide","/wiki/Soap","/wiki/Saponification","#cite_note-Ullmann-3","/w/index.php?title=Lauric_acid&action=edit&section=3","/wiki/Molar_mass","/wiki/Freezing-point_depression","/wiki/Cryoscopic_constant","#cite_note-4","/w/index.php?title=Lauric_acid&action=edit&section=4","#cite_note-5","#cite_note-6","#cite_note-7","#cite_note-8","/wiki/Cholesterol","#cite_note-Mensink2003-9","#cite_note-Thijssen-10","/wiki/Monolaurin","/w/index.php?title=Lauric_acid&action=edit&section=5","#cite_ref-1","/wiki/International_Standard_Book_Number","/wiki/Special:BookSources/0-8493-0486-5","#cite_ref-lexicon_2-0","#cite_ref-lexicon_2-1","http://iupac.org/publications/pac/73/4/0685/","/wiki/Digital_object_identifier","http://dx.doi.org/10.1351%2Fpac200173040685","#cite_ref-Ullmann_3-0","#cite_ref-Ullmann_3-1","/wiki/Digital_object_identifier","http://dx.doi.org/10.1002%2F14356007.a10_245.pub2","#cite_ref-4","https://eee.uci.edu/programs/gchem/02MANfrzptdep.pdf","/wiki/University_of_California,_Irvine","https://eee.uci.edu/programs/gchem/02MANfrzptdep.pdf","#cite_ref-5","/wiki/PubMed_Identifier","//www.ncbi.nlm.nih.gov/pubmed/11403145","#cite_ref-6","/wiki/Digital_object_identifier","http://dx.doi.org/10.1016%2FS0168-1605%2800%2900407-4","/wiki/PubMed_Identifier","//www.ncbi.nlm.nih.gov/pubmed/11139014","#cite_ref-7","http://ps.fass.org/cgi/content/abstract/81/5/721","/w/index.php?title=Poultry_Science&action=edit&redlink=1","/wiki/PubMed_Identifier","//www.ncbi.nlm.nih.gov/pubmed/12033424","#cite_ref-8","http://www.ncbi.nlm.nih.gov/pmc/articles/PMC111339","/wiki/J_Bacteriol","/wiki/Digital_object_identifier","http://dx.doi.org/10.1128%2FJB.182.9.2668-2671.2000","/wiki/PubMed_Central","//www.ncbi.nlm.nih.gov/pmc/articles/PMC111339","/wiki/PubMed_Identifier","//www.ncbi.nlm.nih.gov/pubmed/10762277","#cite_ref-Mensink2003_9-0","http://www.ajcn.org/content/77/5/1146.full?ijkey=846a72387ebc0d82545acd5442a0c3a9e9fc3566","/wiki/International_Standard_Serial_Number","//www.worldcat.org/issn/0002-9165","/wiki/PubMed_Identifier","//www.ncbi.nlm.nih.gov/pubmed/12716665","#cite_ref-Thijssen_10-0","http://books.google.com/books?id=kvo6BN1AGNAC&pg=PA171&dq=#v=onepage&q&f=false","/wiki/Special:BookSources/9783540225690","/w/index.php?title=Lauric_acid&action=edit&section=6","/wiki/Orbignya_phalerata","/wiki/Babassu_oil","/wiki/Attalea_cohune","/wiki/Cohune_oil","/wiki/Astrocaryum_murumuru","/wiki/Coconut","/wiki/Coconut_oil","/w/index.php?title=Pycnanthus_kombo&action=edit&redlink=1","/wiki/Virola_surinamensis","/wiki/Peach_palm","/wiki/Betel_nut","/wiki/Date_palm","/wiki/Macadamia_nut","/wiki/Plum","/wiki/Watermelon","/wiki/Citrullus_lanatus","/wiki/Pumpkin","/w/index.php?title=Lauric_acid&action=edit&section=7","http://books.google.com/books?id=wflcBD1PKx8C&pg=PA159&dq=#v=onepage&q&f=false","/wiki/Special:BookSources/9780120164370","http://books.google.com/books?id=zQSzj1hcYVkC&printsec=frontcover&dq=#v=onepage&q&f=false","/wiki/Special:BookSources/9991817697","http://books.google.com/books?id=z8EoP-5sZ6sC&printsec=frontcover&source=gbs_ge_summary_r&cad=0#v=onepage&q&f=false","/wiki/Special:BookSources/1556436904","/wiki/Template:Fatty_acids","/wiki/Template_talk:Fatty_acids","//en.wikipedia.org/w/index.php?title=Template:Fatty_acids&action=edit","/wiki/Lipid","/wiki/Fatty_acid","/wiki/Saturated_fat","/wiki/Volatile_fatty_acids","/wiki/Acetic_acid","/wiki/Propionic_acid","/wiki/Butyric_acid","/wiki/Valeric_acid","/wiki/Hexanoic_acid","/wiki/Heptanoic_acid","/wiki/Caprylic_acid","/wiki/Nonanoic_acid","/wiki/Decanoic_acid","/wiki/Undecylic_acid","/wiki/Tridecylic_acid","/wiki/Myristic_acid","/wiki/Pentadecanoic_acid","/wiki/Palmitic_acid","/wiki/Heptadecanoic_acid","/wiki/Stearic_acid","/wiki/Nonadecylic_acid","/wiki/Arachidic_acid","/w/index.php?title=Heneicosylic_acid&action=edit&redlink=1","/wiki/Behenic_acid","/w/index.php?title=Tricosylic_acid&action=edit&redlink=1","/wiki/Lignoceric_acid","/w/index.php?title=Pentacosylic_acid&action=edit&redlink=1","/wiki/Cerotic_acid","/w/index.php?title=Heptacosylic_acid&action=edit&redlink=1","/wiki/Montanic_acid","/w/index.php?title=Nonacosylic_acid&action=edit&redlink=1","/wiki/Melissic_acid","/wiki/Hentriacontylic_acid","/wiki/Lacceroic_acid","/wiki/Psyllic_acid","/wiki/Geddic_acid","/wiki/Ceroplastic_acid","/wiki/Hexatriacontylic_acid","/wiki/Omega-3_fatty_acid","/wiki/Alpha-Linolenic_acid","/wiki/Stearidonic_acid","/wiki/Eicosapentaenoic_acid","/wiki/Docosahexaenoic_acid","/wiki/Omega-6_fatty_acid","/wiki/Linoleic_acid","/wiki/Gamma-Linolenic_acid","/wiki/Dihomo-gamma-linolenic_acid","/wiki/Arachidonic_acid","/wiki/Adrenic_acid","/wiki/Omega-7_fatty_acid","/wiki/Palmitoleic_acid","/wiki/Vaccenic_acid","/wiki/Paullinic_acid","/wiki/Omega-9_fatty_acid","/wiki/Oleic_acid","/wiki/Elaidic_acid","/wiki/Gondoic_acid","/wiki/Erucic_acid","/wiki/Nervonic_acid","/wiki/Mead_acid","/wiki/Biochemistry","/wiki/Template:Metabolism","/wiki/Template:Carbohydrates","/wiki/Template:Alcohols","/wiki/Template:Glycoproteins","/wiki/Template:Glycosides","/wiki/Template:Lipids","/wiki/Template:Eicosanoids","/wiki/Template:Fatty_acids","/wiki/Template:Fatty-acid_metabolism_intermediates","/wiki/Template:Phospholipids","/wiki/Template:Sphingolipids","/wiki/Template:Cholesterol_and_steroid_intermediates","/wiki/Template:Nucleic_acids","/wiki/Template:Nucleobases,_nucleosides,_and_nucleotides","/wiki/Template:Nucleotide_metabolism_intermediates","/wiki/Template:Protein_topics","/wiki/Template:AminoAcids","/wiki/Template:Amino_acid_metabolism_intermediates","/wiki/Template:Tetrapyrroles","/wiki/Template:Heme_metabolism_intermediates","http://en.wikipedia.org/w/index.php?title=Lauric_acid&oldid=541542142","/wiki/Help:Categories","/wiki/Category:Fatty_acids","/wiki/Category:Nutrition","/wiki/Category:Oil_palm","/wiki/Category:Articles_with_changed_ChemSpider_identifier","/wiki/Category:Articles_with_changed_EBI_identifier","/wiki/Category:Chemboxes_which_contain_changes_to_verified_fields","/wiki/Category:Chemboxes_which_contain_changes_to_watched_fields","/w/index.php?title=Special:UserLogin&returnto=Lauric+acid&type=signup","/w/index.php?title=Special:UserLogin&returnto=Lauric+acid","/wiki/Lauric_acid","/wiki/Talk:Lauric_acid","#","/wiki/Lauric_acid","/w/index.php?title=Lauric_acid&action=edit","/w/index.php?title=Lauric_acid&action=history","#","/w/index.php","//bits.wikimedia.org/static-1.21wmf11/skins/vector/images/search-ltr.png?303-4","/wiki/Main_Page","/wiki/Main_Page","/wiki/Portal:Contents","/wiki/Portal:Featured_content","/wiki/Portal:Current_events","/wiki/Special:Random","//donate.wikimedia.org/wiki/Special:FundraiserRedirector?utm_source=donate&utm_medium=sidebar&utm_campaign=C13_en.wikipedia.org&uselang=en","/wiki/Help:Contents","/wiki/Wikipedia:About","/wiki/Wikipedia:Community_portal","/wiki/Special:RecentChanges","/wiki/Wikipedia:Contact_us","/wiki/Special:WhatLinksHere/Lauric_acid","/wiki/Special:RecentChangesLinked/Lauric_acid","/wiki/Wikipedia:File_Upload_Wizard","/wiki/Special:SpecialPages","/w/index.php?title=Lauric_acid&oldid=541542142","/w/index.php?title=Lauric_acid&action=info","/w/index.php?title=Special:Cite&page=Lauric_acid&id=541542142","/w/index.php?title=Special:Book&bookcmd=book_creator&referer=Lauric+acid","/w/index.php?title=Special:Book&bookcmd=render_article&arttitle=Lauric+acid&oldid=541542142&writer=rl","/w/index.php?title=Lauric_acid&printable=yes","//bg.wikipedia.org/wiki/%D0%9B%D0%B0%D1%83%D1%80%D0%B8%D0%BD%D0%BE%D0%B2%D0%B0_%D0%BA%D0%B8%D1%81%D0%B5%D0%BB%D0%B8%D0%BD%D0%B0","//ca.wikipedia.org/wiki/%C3%80cid_l%C3%A0uric","//cs.wikipedia.org/wiki/Kyselina_laurov%C3%A1","//de.wikipedia.org/wiki/Laurins%C3%A4ure","//es.wikipedia.org/wiki/%C3%81cido_l%C3%A1urico","//eo.wikipedia.org/wiki/La%C5%ADra_acido","//fa.wikipedia.org/wiki/%D9%84%D9%88%D8%B1%DB%8C%DA%A9_%D8%A7%D8%B3%DB%8C%D8%AF","//fr.wikipedia.org/wiki/Acide_dod%C3%A9cano%C3%AFque","//gl.wikipedia.org/wiki/%C3%81cido_l%C3%A1urico","//hi.wikipedia.org/wiki/%E0%A4%B2%E0%A5%89%E0%A4%B0%E0%A4%BF%E0%A4%95_%E0%A4%85%E0%A4%AE%E0%A5%8D%E0%A4%B2","//id.wikipedia.org/wiki/Asam_laurat","//it.wikipedia.org/wiki/Acido_laurico","//lv.wikipedia.org/wiki/Laur%C4%ABnsk%C4%81be","//nl.wikipedia.org/wiki/Laurinezuur","//ja.wikipedia.org/wiki/%E3%83%A9%E3%82%A6%E3%83%AA%E3%83%B3%E9%85%B8","//no.wikipedia.org/wiki/Laurinsyre","//pl.wikipedia.org/wiki/Kwas_laurynowy","//pt.wikipedia.org/wiki/%C3%81cido_dodecanoico","//ru.wikipedia.org/wiki/%D0%9B%D0%B0%D1%83%D1%80%D0%B8%D0%BD%D0%BE%D0%B2%D0%B0%D1%8F_%D0%BA%D0%B8%D1%81%D0%BB%D0%BE%D1%82%D0%B0","//sr.wikipedia.org/wiki/Laurinska_kiselina","//fi.wikipedia.org/wiki/Lauriinihappo","//te.wikipedia.org/wiki/%E0%B0%B2%E0%B0%BE%E0%B0%B0%E0%B0%BF%E0%B0%95%E0%B1%8D_%E0%B0%86%E0%B0%AE%E0%B1%8D%E0%B0%B2%E0%B0%82","//zh.wikipedia.org/wiki/%E6%9C%88%E6%A1%82%E9%85%B8","//www.wikidata.org/wiki/Special:ItemByTitle/enwiki/Lauric acid","//en.wikipedia.org/wiki/Wikipedia:Text_of_Creative_Commons_Attribution-ShareAlike_3.0_Unported_License","//creativecommons.org/licenses/by-sa/3.0/","//wikimediafoundation.org/wiki/Terms_of_Use","//www.wikimediafoundation.org/","//en.wikipedia.org/wiki/Wikipedia:Contact_us","//wikimediafoundation.org/wiki/Privacy_policy","/wiki/Wikipedia:About","/wiki/Wikipedia:General_disclaimer","http://en.m.wikipedia.org/wiki/Lauric_acid","//wikimediafoundation.org/","//bits.wikimedia.org/images/wikimedia-button.png","//www.mediawiki.org/","//bits.wikimedia.org/static-1.21wmf11/skins/common/images/poweredby_mediawiki_88x31.png","//bits.wikimedia.org/en.wikipedia.org/load.php?debug=false&lang=en&modules=skins.vector&only=scripts&skin=vector&*","/w/index.php?title=MediaWiki:Gadget-ReferenceTooltips.js&action=raw&ctype=text/javascript&508635914","//bits.wikimedia.org/en.wikipedia.org/load.php?debug=false&lang=en&modules=site&only=scripts&skin=vector&*"],"instances":[],"pdf":["https://eee.uci.edu/programs/gchem/02MANfrzptdep.pdf","https://eee.uci.edu/programs/gchem/02MANfrzptdep.pdf"],"categories":["Fatty acids","Nutrition","Oil palm"],"headings":["Occurrence","Properties","References","Appendix: occurrence of lauric acid in various foods","Further reading"],"image":["//upload.wikimedia.org/wikipedia/commons/thumb/7/7f/Lauric_acid.png/200px-Lauric_acid.png","//upload.wikimedia.org/wikipedia/commons/thumb/4/48/Lauric-acid-3D-balls.png/200px-Lauric-acid-3D-balls.png","//upload.wikimedia.org/wikipedia/en/thumb/f/fb/Yes_check.svg/7px-Yes_check.svg.png","//upload.wikimedia.org/wikipedia/commons/thumb/a/a2/X_mark.svg/7px-X_mark.svg.png","//upload.wikimedia.org/wikipedia/commons/thumb/a/a2/X_mark.svg/7px-X_mark.svg.png","//upload.wikimedia.org/wikipedia/commons/thumb/a/a2/X_mark.svg/7px-X_mark.svg.png","//upload.wikimedia.org/wikipedia/commons/thumb/a/a2/X_mark.svg/7px-X_mark.svg.png","//upload.wikimedia.org/wikipedia/commons/thumb/6/6f/NFPA_704.svg/75px-NFPA_704.svg.png","//upload.wikimedia.org/wikipedia/commons/thumb/a/a2/X_mark.svg/14px-X_mark.svg.png","//upload.wikimedia.org/wikipedia/en/thumb/f/fb/Yes_check.svg/10px-Yes_check.svg.png","//upload.wikimedia.org/wikipedia/commons/thumb/a/a2/X_mark.svg/10px-X_mark.svg.png","//bits.wikimedia.org/static-1.21wmf11/skins/vector/images/search-ltr.png?303-4","//bits.wikimedia.org/images/wikimedia-button.png","//bits.wikimedia.org/static-1.21wmf11/skins/common/images/poweredby_mediawiki_88x31.png"],"tags":[],"members":[],"related":["Bay_oil","Glyceryl_laurate","Saturated_fat","Fatty_acid","Medium-chain_triglycerides","Triglyceride","Coconut_oil","Palm_kernel_oil","Palm_oil","Human_breast_milk","Fatty_acid","Soap","Cosmetics","Sodium_hydroxide","Soap","Saponification","Molar_mass","Freezing-point_depression","Cryoscopic_constant","Acne","Cholesterol","Monolaurin","Babassu_oil","Cohune_oil","Coconut","Coconut_oil","Peach_palm","Betel_nut","Date_palm","Macadamia_nut","Plum","Watermelon","Pumpkin"]}