{"cursor":"2776","size":15,"audio":[],"currentlang":"en","article":"{{chembox\n| Watchedfields = changed verifiedrevid = 413478790 ImageFile = DL-\n| Phosphinotricin.png ImageSize = IUPACName = Ammonium (2-amino-4-\n| (methylphosphinato)butanoate OtherNames = Glufosinate ammonium; 2-Amino-4-\n| (hydroxymethylposphinyl)butanoic acid monoammonium salt; Phosphinothricin\n| Abbreviations = PPT Section1 = {{Chembox Identifiers CASNo = 77182-82-2\n| CASNo_Ref = PubChem = 53597 SMILES = CP(=O)(CCC(C(=O)[O-])N)O.[NH4+]\n  }}\n| Section2 = {{Chembox Properties C=5|H=15|N=2|O=4|P=1 Appearance = Density =\n| MeltingPtC = 205 BoilingPt = Solubility =\n  }}\n| Section3 = {{Chembox Hazards MainHazards = FlashPt = Autoignition = RPhrases =\n  }} }}\n\n'DL-Phosphinothricin' is a herbicide commonly used in plant molecular biology\nand plant tissue culture. It is the ammonium salt of glufosinate. It is also\nknown as 'glufosinate ammonium'.\n\nThe herbicide is a broad spectrum herbicide which is comparatively\nbiodegradable, similar to glyphosate. Glufosinate is sold under trade\nnames Basta, Buster and Liberty. Crops have been developed (genetically\nengineered) which are resistant to this herbicide through the insertion of the\nbar gene into plants.\n","linknr":121,"url":"DL-Phosphinotricin","recorded":1364145093,"links":["/w/index.php?title=DL-Phosphinothricin&action=edit","/w/index.php?title=DL-Phosphinothricin&action=edit","//en.wikipedia.org/apple-touch-icon.png","//bits.wikimedia.org/favicon/wikipedia.ico","/w/opensearch_desc.php","//en.wikipedia.org/w/api.php?action=rsd","//creativecommons.org/licenses/by-sa/3.0/","/w/index.php?title=Special:RecentChanges&feed=atom","/wiki/DL-Phosphinothricin","//bits.wikimedia.org/en.wikipedia.org/load.php?debug=false&lang=en&modules=ext.gadget.DRN-wizard%2CReferenceTooltips%2Ccharinsert%2Cteahouse%7Cext.wikihiero%7Cmediawiki.legacy.commonPrint%2Cshared%7Cmw.PopUpMediaTransform%7Cskins.vector&only=styles&skin=vector&*","//bits.wikimedia.org/en.wikipedia.org/load.php?debug=false&lang=en&modules=site&only=styles&skin=vector&*","//bits.wikimedia.org/en.wikipedia.org/load.php?debug=false&lang=en&modules=startup&only=scripts&skin=vector&*","//bits.wikimedia.org/geoiplookup","//meta.wikimedia.org","/w/index.php?title=DL-Phosphinotricin&redirect=no","#mw-head","#p-search","/wiki/File:DL-Phosphinotricin.png","//upload.wikimedia.org/wikipedia/commons/thumb/f/f9/DL-Phosphinotricin.png/200px-DL-Phosphinotricin.png","/wiki/International_Union_of_Pure_and_Applied_Chemistry_nomenclature","/wiki/CAS_registry_number","http://www.commonchemistry.org/ChemicalDetail.aspx?ref=77182-82-2","//upload.wikimedia.org/wikipedia/en/thumb/f/fb/Yes_check.svg/7px-Yes_check.svg.png","/wiki/PubChem","http://pubchem.ncbi.nlm.nih.gov/summary/summary.cgi?cid=53597","/wiki/Jmol","http://chemapps.stolaf.edu/jmol/jmol.php?model=CP%28%3DO%29%28CCC%28C%28%3DO%29%5BO-%5D%29N%29O.%5BNH4%2B%5D","/wiki/Simplified_molecular-input_line-entry_system","/wiki/Molecular_formula","/wiki/Molar_mass","/wiki/Melting_point","/wiki/List_of_R-phrases","/wiki/R23/24/25:_Toxic_by_inhalation,_in_contact_with_skin_and_if_swallowed","//upload.wikimedia.org/wikipedia/en/thumb/f/fb/Yes_check.svg/14px-Yes_check.svg.png","//en.wikipedia.org/w/index.php?title=Special:ComparePages&rev1=413478790&page2=DL-Phosphinothricin","/wiki/Wikipedia:WikiProject_Chemicals/Chembox_validation","//upload.wikimedia.org/wikipedia/en/thumb/f/fb/Yes_check.svg/10px-Yes_check.svg.png","//upload.wikimedia.org/wikipedia/commons/thumb/a/a2/X_mark.svg/10px-X_mark.svg.png","/wiki/Standard_state","/wiki/Wikipedia:Chemical_infobox#References","/wiki/Herbicide","/wiki/Molecular_biology","/wiki/Ammonium","/wiki/Salt","/wiki/Glufosinate","/wiki/Glyphosate","#cite_note-1","/wiki/Genetic_engineering","#cite_note-2","/w/index.php?title=DL-Phosphinothricin&action=edit&section=1","#cite_ref-1","http://www.patentlens.net/daisy/Phosph/g1/706.html","/wiki/CAMBIA","http://www.patentlens.net/daisy/Phosph/g1/706.html","#cite_ref-2","http://www.patentlens.net/daisy/Phosph/743.html","/wiki/CAMBIA","http://www.patentlens.net/daisy/Phosph/743.html","/w/index.php?title=DL-Phosphinothricin&action=edit&section=2","http://www.bayercropscience.com.au/resources/products/TechGuide/Basta_tech%20Guide_BHT22410606H&T_2007_auwsc.pdf","http://web.archive.org/web/20080801034805/http://www.pan-uk.org/pestnews/actives/glufosin.htm","http://www.pan-uk.org/pestnews/actives/glufosin.htm","http://web.archive.org/web/20080801034805/http://www.pan-uk.org/pestnews/actives/glufosin.htm","http://en.wikipedia.org/w/index.php?title=DL-Phosphinothricin&oldid=544809194","/wiki/Help:Categories","/wiki/Category:Ammonium_compounds","/wiki/Category:Herbicides","/wiki/Category:Phosphinic_acids","/wiki/Category:Chemical_pages_needing_a_ChemSpiderID","/wiki/Category:Chemboxes_which_contain_changes_to_watched_fields","/w/index.php?title=Special:UserLogin&returnto=DL-Phosphinothricin&type=signup","/w/index.php?title=Special:UserLogin&returnto=DL-Phosphinothricin","/wiki/DL-Phosphinothricin","/wiki/Talk:DL-Phosphinothricin","#","/wiki/DL-Phosphinothricin","/w/index.php?title=DL-Phosphinothricin&action=edit","/w/index.php?title=DL-Phosphinothricin&action=history","#","/w/index.php","//bits.wikimedia.org/static-1.21wmf11/skins/vector/images/search-ltr.png?303-4","/wiki/Main_Page","/wiki/Main_Page","/wiki/Portal:Contents","/wiki/Portal:Featured_content","/wiki/Portal:Current_events","/wiki/Special:Random","//donate.wikimedia.org/wiki/Special:FundraiserRedirector?utm_source=donate&utm_medium=sidebar&utm_campaign=C13_en.wikipedia.org&uselang=en","/wiki/Help:Contents","/wiki/Wikipedia:About","/wiki/Wikipedia:Community_portal","/wiki/Special:RecentChanges","/wiki/Wikipedia:Contact_us","/wiki/Special:WhatLinksHere/DL-Phosphinothricin","/wiki/Special:RecentChangesLinked/DL-Phosphinothricin","/wiki/Wikipedia:File_Upload_Wizard","/wiki/Special:SpecialPages","/w/index.php?title=DL-Phosphinothricin&oldid=544809194","/w/index.php?title=DL-Phosphinothricin&action=info","/w/index.php?title=Special:Cite&page=DL-Phosphinothricin&id=544809194","/w/index.php?title=Special:Book&bookcmd=book_creator&referer=DL-Phosphinothricin","/w/index.php?title=Special:Book&bookcmd=render_article&arttitle=DL-Phosphinothricin&oldid=544809194&writer=rl","/w/index.php?title=DL-Phosphinothricin&printable=yes","//fa.wikipedia.org/wiki/%D8%AF%DB%8C%E2%80%8C%D8%A7%D9%84-%D9%81%D8%B3%D9%81%DB%8C%D9%86%D9%88%D8%AA%D8%B1%DB%8C%D8%B3%DB%8C%D9%86","//fr.wikipedia.org/wiki/DL-Phosphinotricine","//www.wikidata.org/wiki/Special:ItemByTitle/enwiki/DL-Phosphinothricin","//en.wikipedia.org/wiki/Wikipedia:Text_of_Creative_Commons_Attribution-ShareAlike_3.0_Unported_License","//creativecommons.org/licenses/by-sa/3.0/","//wikimediafoundation.org/wiki/Terms_of_Use","//www.wikimediafoundation.org/","//en.wikipedia.org/wiki/Wikipedia:Contact_us","//wikimediafoundation.org/wiki/Privacy_policy","/wiki/Wikipedia:About","/wiki/Wikipedia:General_disclaimer","http://en.m.wikipedia.org/wiki/DL-Phosphinothricin","//wikimediafoundation.org/","//bits.wikimedia.org/images/wikimedia-button.png","//www.mediawiki.org/","//bits.wikimedia.org/static-1.21wmf11/skins/common/images/poweredby_mediawiki_88x31.png","//bits.wikimedia.org/en.wikipedia.org/load.php?debug=false&lang=en&modules=skins.vector&only=scripts&skin=vector&*","/w/index.php?title=MediaWiki:Gadget-ReferenceTooltips.js&action=raw&ctype=text/javascript&508635914","//bits.wikimedia.org/en.wikipedia.org/load.php?debug=false&lang=en&modules=site&only=scripts&skin=vector&*"],"instances":[],"pdf":["http://www.bayercropscience.com.au/resources/products/TechGuide/Basta_tech%20Guide_BHT22410606H&T_2007_auwsc.pdf"],"categories":["Ammonium compounds","Herbicides","Phosphinic acids"],"headings":["References","Further reading"],"image":["//upload.wikimedia.org/wikipedia/commons/thumb/f/f9/DL-Phosphinotricin.png/200px-DL-Phosphinotricin.png","//upload.wikimedia.org/wikipedia/en/thumb/f/fb/Yes_check.svg/7px-Yes_check.svg.png","//upload.wikimedia.org/wikipedia/en/thumb/f/fb/Yes_check.svg/14px-Yes_check.svg.png","//upload.wikimedia.org/wikipedia/en/thumb/f/fb/Yes_check.svg/10px-Yes_check.svg.png","//upload.wikimedia.org/wikipedia/commons/thumb/a/a2/X_mark.svg/10px-X_mark.svg.png","//bits.wikimedia.org/static-1.21wmf11/skins/vector/images/search-ltr.png?303-4","//bits.wikimedia.org/images/wikimedia-button.png","//bits.wikimedia.org/static-1.21wmf11/skins/common/images/poweredby_mediawiki_88x31.png"],"tags":[],"members":[],"related":["Herbicide","Molecular_biology","Ammonium","Salt","Glufosinate","Glyphosate","Genetic_engineering"]}