{"cursor":"2310","size":15,"audio":[],"currentlang":"en","article":"{{Chembox\n| Verifiedfields = changed verifiedrevid = 415680465 Name = Lignoceric acid\n| IUPACName = Tetracosanoic acid OtherNames = C24:0 (Lipid numbers) ImageFile =\n| Lignocerīnskābe.svg Section1 = {{Chembox Identifiers ChemSpiderID_Ref =\n| ChemSpiderID = 10724 KEGG_Ref = KEGG = C08320 InChI = 1/C24H48O2/c1-2-3-4-5-6-7-8-9-10-11-12-13-14-15-16-17-18-19-20-21-22-23-\n| 24(25)26/h2-23H2,1H3,(H,25,26) InChIKey = QZZGJDVWLFXDLK-UHFFFAOYAH ChEBI_Ref\n| = ChEBI = 28866 SMILES = O=C(O)CCCCCCCCCCCCCCCCCCCCCCC ChEMBL_Ref = ChEMBL =\n| 1173620 StdInChI_Ref = StdInChI = 1S/C24H48O2/c1-2-3-4-5-6-7-8-9-10-11-12-13-14-15-16-17-18-19-20-21-22-23-\n| 24(25)26/h2-23H2,1H3,(H,25,26) StdInChIKey_Ref = StdInChIKey = QZZGJDVWLFXDLK-UHFFFAOYSA-\n| N CASNo_Ref = CASNo = 557-59-5 PubChem = 11197\n  }}\n| Section2 = {{Chembox Properties Formula =\n| C 24 H48 O2 MolarMass = 368.63 g/mol MeltingPt =\n| 84.2 °C\n  }}\n| Section8 = {{Chembox Related Function = Fatty acids OtherFunctn = Behenic acid\n| (C22:0)  Cerotic acid (C26:0)\n  }} }}\n\n'Lignoceric acid', or 'tetracosanoic acid', is the saturated fatty acid with\nformula C 23 H47 COOH. It is found in wood tar, various\ncerebrosides, and in small amounts in most natural fats. The fatty acids of\npeanut oil contain small amounts of lignoceric acid (1.1% – 2.2%). This fatty acid is also a byproduct of lignin production.\n\nReduction of lignoceric acid yields lignoceryl alcohol.\n","linknr":232,"url":"Lignoceric_acid","recorded":1371245858,"links":["/w/index.php?title=Lignoceric_acid&action=edit","/w/index.php?title=Lignoceric_acid&action=edit","//bits.wikimedia.org/favicon/wikipedia.ico","/w/opensearch_desc.php","//en.wikipedia.org/w/api.php?action=rsd","//creativecommons.org/licenses/by-sa/3.0/","/w/index.php?title=Special:RecentChanges&feed=atom","//bits.wikimedia.org/en.wikipedia.org/load.php?debug=false&lang=en&modules=ext.gadget.DRN-wizard%2CReferenceTooltips%2Ccharinsert%2Cteahouse%7Cext.rtlcite%2Cwikihiero%7Cmediawiki.legacy.commonPrint%2Cshared%7Cmw.PopUpMediaTransform%7Cskins.vector&only=styles&skin=vector&*","//bits.wikimedia.org/en.wikipedia.org/load.php?debug=false&lang=en&modules=site&only=styles&skin=vector&*","//bits.wikimedia.org/en.wikipedia.org/load.php?debug=false&lang=en&modules=startup&only=scripts&skin=vector&*","//bits.wikimedia.org/geoiplookup","//meta.wikimedia.org","#mw-navigation","#p-search","/wiki/File:Lignocer%C4%ABnsk%C4%81be.svg","//upload.wikimedia.org/wikipedia/commons/thumb/d/db/Lignocer%C4%ABnsk%C4%81be.svg/200px-Lignocer%C4%ABnsk%C4%81be.svg.png","/wiki/International_Union_of_Pure_and_Applied_Chemistry_nomenclature","/wiki/Fatty_acid#Nomenclature","/wiki/CAS_registry_number","http://www.commonchemistry.org/ChemicalDetail.aspx?ref=557-59-5","//upload.wikimedia.org/wikipedia/en/thumb/f/fb/Yes_check.svg/7px-Yes_check.svg.png","/wiki/PubChem","http://pubchem.ncbi.nlm.nih.gov/summary/summary.cgi?cid=11197","/wiki/ChemSpider","http://www.chemspider.com/10724","//upload.wikimedia.org/wikipedia/en/thumb/f/fb/Yes_check.svg/7px-Yes_check.svg.png","/wiki/KEGG","http://www.kegg.jp/entry/C08320","//upload.wikimedia.org/wikipedia/en/thumb/f/fb/Yes_check.svg/7px-Yes_check.svg.png","/wiki/ChEBI","https://www.ebi.ac.uk/chebi/searchId.do?chebiId=28866","//upload.wikimedia.org/wikipedia/commons/thumb/a/a2/X_mark.svg/7px-X_mark.svg.png","/wiki/ChEMBL","https://www.ebi.ac.uk/chembldb/index.php/compound/inspect/CHEMBL1173620","//upload.wikimedia.org/wikipedia/en/thumb/f/fb/Yes_check.svg/7px-Yes_check.svg.png","/wiki/Jmol","http://chemapps.stolaf.edu/jmol/jmol.php?model=O%3DC%28O%29CCCCCCCCCCCCCCCCCCCCCCC","/wiki/Simplified_molecular-input_line-entry_system","/wiki/International_Chemical_Identifier","//upload.wikimedia.org/wikipedia/en/thumb/f/fb/Yes_check.svg/7px-Yes_check.svg.png","//upload.wikimedia.org/wikipedia/en/thumb/f/fb/Yes_check.svg/7px-Yes_check.svg.png","/wiki/Chemical_formula","/wiki/Molar_mass","/wiki/Melting_point","#cite_note-lexicon-1","/wiki/Fatty_acid","/wiki/Behenic_acid","/wiki/Cerotic_acid","//upload.wikimedia.org/wikipedia/commons/thumb/a/a2/X_mark.svg/14px-X_mark.svg.png","//en.wikipedia.org/w/index.php?title=Special:ComparePages&rev1=415680465&page2=Lignoceric+acid","/wiki/Wikipedia:WikiProject_Chemicals/Chembox_validation","//upload.wikimedia.org/wikipedia/en/thumb/f/fb/Yes_check.svg/10px-Yes_check.svg.png","//upload.wikimedia.org/wikipedia/commons/thumb/a/a2/X_mark.svg/10px-X_mark.svg.png","/wiki/Standard_state","/wiki/Wikipedia:Chemical_infobox#References","/wiki/Fatty_acid#Saturated_fatty_acids","/wiki/Wood_tar","/wiki/Cerebroside","/wiki/Fat","/wiki/Peanut_oil","#cite_note-lexicon-1","/wiki/Lignin","/wiki/Lignoceryl_alcohol","/w/index.php?title=Lignoceric_acid&action=edit&section=1","/wiki/List_of_saturated_fatty_acids","/w/index.php?title=Lignoceric_acid&action=edit&section=2","#cite_ref-lexicon_1-0","#cite_ref-lexicon_1-1","http://iupac.org/publications/pac/73/4/0685/","/wiki/Digital_object_identifier","http://dx.doi.org/10.1351%2Fpac200173040685","/wiki/Template:Fatty_acids","/wiki/Template_talk:Fatty_acids","//en.wikipedia.org/w/index.php?title=Template:Fatty_acids&action=edit","/wiki/Lipid","/wiki/Fatty_acid","/wiki/Saturated_fat","/wiki/Volatile_fatty_acids","/wiki/Acetic_acid","/wiki/Propionic_acid","/wiki/Butyric_acid","/wiki/Valeric_acid","/wiki/Hexanoic_acid","/wiki/Heptanoic_acid","/wiki/Caprylic_acid","/wiki/Nonanoic_acid","/wiki/Decanoic_acid","/wiki/Undecylic_acid","/wiki/Lauric_acid","/wiki/Tridecylic_acid","/wiki/Myristic_acid","/wiki/Pentadecanoic_acid","/wiki/Palmitic_acid","/wiki/Heptadecanoic_acid","/wiki/Stearic_acid","/wiki/Nonadecylic_acid","/wiki/Arachidic_acid","/w/index.php?title=Heneicosylic_acid&action=edit&redlink=1","/wiki/Behenic_acid","/w/index.php?title=Tricosylic_acid&action=edit&redlink=1","/w/index.php?title=Pentacosylic_acid&action=edit&redlink=1","/wiki/Cerotic_acid","/w/index.php?title=Heptacosylic_acid&action=edit&redlink=1","/wiki/Montanic_acid","/w/index.php?title=Nonacosylic_acid&action=edit&redlink=1","/wiki/Melissic_acid","/wiki/Hentriacontylic_acid","/wiki/Lacceroic_acid","/wiki/Psyllic_acid","/wiki/Geddic_acid","/wiki/Ceroplastic_acid","/wiki/Hexatriacontylic_acid","/wiki/Omega-3_fatty_acid","/wiki/Alpha-Linolenic_acid","/wiki/Stearidonic_acid","/wiki/Eicosapentaenoic_acid","/wiki/Docosahexaenoic_acid","/wiki/Omega-6_fatty_acid","/wiki/Linoleic_acid","/wiki/Gamma-Linolenic_acid","/wiki/Dihomo-gamma-linolenic_acid","/wiki/Arachidonic_acid","/wiki/Adrenic_acid","/wiki/Omega-7_fatty_acid","/wiki/Palmitoleic_acid","/wiki/Vaccenic_acid","/wiki/Paullinic_acid","/wiki/Omega-9_fatty_acid","/wiki/Oleic_acid","/wiki/Elaidic_acid","/wiki/Gondoic_acid","/wiki/Erucic_acid","/wiki/Nervonic_acid","/wiki/Mead_acid","/wiki/Biochemistry","/wiki/Template:Metabolism","/wiki/Template:Carbohydrates","/wiki/Template:Alcohols","/wiki/Template:Glycoproteins","/wiki/Template:Glycosides","/wiki/Template:Lipids","/wiki/Template:Eicosanoids","/wiki/Template:Fatty_acids","/wiki/Template:Fatty-acid_metabolism_intermediates","/wiki/Template:Phospholipids","/wiki/Template:Sphingolipids","/wiki/Template:Cholesterol_and_steroid_intermediates","/wiki/Template:Nucleic_acids","/wiki/Template:Nucleobases,_nucleosides,_and_nucleotides","/wiki/Template:Nucleotide_metabolism_intermediates","/wiki/Template:Protein_topics","/wiki/Template:AminoAcids","/wiki/Template:Amino_acid_metabolism_intermediates","/wiki/Template:Tetrapyrroles","/wiki/Template:Heme_metabolism_intermediates","/wiki/File:Formamide-3D-vdW.png","//upload.wikimedia.org/wikipedia/commons/thumb/c/cf/Formamide-3D-vdW.png/30px-Formamide-3D-vdW.png","/wiki/Organic_compound","/wiki/Wikipedia:Stub","//en.wikipedia.org/w/index.php?title=Lignoceric_acid&action=edit","/wiki/Template:Organic-compound-stub","/wiki/Template_talk:Organic-compound-stub","//en.wikipedia.org/w/index.php?title=Template:Organic-compound-stub&action=edit","http://en.wikipedia.org/w/index.php?title=Lignoceric_acid&oldid=540539751","/wiki/Help:Categories","/wiki/Category:Fatty_acids","/wiki/Category:Waxes","/wiki/Category:Papermaking","/wiki/Category:Organic_compound_stubs","/wiki/Category:Articles_with_changed_EBI_identifier","/wiki/Category:Chemboxes_which_contain_changes_to_verified_fields","/w/index.php?title=Special:UserLogin&returnto=Lignoceric+acid&type=signup","/w/index.php?title=Special:UserLogin&returnto=Lignoceric+acid","/wiki/Lignoceric_acid","/wiki/Talk:Lignoceric_acid","#","/wiki/Lignoceric_acid","/w/index.php?title=Lignoceric_acid&action=edit","/w/index.php?title=Lignoceric_acid&action=history","#","/w/index.php","//bits.wikimedia.org/static-1.22wmf5/skins/vector/images/search-ltr.png?303-4","/wiki/Main_Page","/wiki/Main_Page","/wiki/Portal:Contents","/wiki/Portal:Featured_content","/wiki/Portal:Current_events","/wiki/Special:Random","//donate.wikimedia.org/wiki/Special:FundraiserRedirector?utm_source=donate&utm_medium=sidebar&utm_campaign=C13_en.wikipedia.org&uselang=en","/wiki/Help:Contents","/wiki/Wikipedia:About","/wiki/Wikipedia:Community_portal","/wiki/Special:RecentChanges","//en.wikipedia.org/wiki/Wikipedia:Contact_us","/wiki/Special:WhatLinksHere/Lignoceric_acid","/wiki/Special:RecentChangesLinked/Lignoceric_acid","/wiki/Wikipedia:File_Upload_Wizard","/wiki/Special:SpecialPages","/w/index.php?title=Lignoceric_acid&oldid=540539751","/w/index.php?title=Lignoceric_acid&action=info","/w/index.php?title=Special:Cite&page=Lignoceric_acid&id=540539751","/w/index.php?title=Special:Book&bookcmd=book_creator&referer=Lignoceric+acid","/w/index.php?title=Special:Book&bookcmd=render_article&arttitle=Lignoceric+acid&oldid=540539751&writer=rl","/w/index.php?title=Lignoceric_acid&printable=yes","//ca.wikipedia.org/wiki/%C3%80cid_lignoc%C3%A8ric","//cs.wikipedia.org/wiki/Kyselina_lignocerov%C3%A1","//de.wikipedia.org/wiki/Lignocerins%C3%A4ure","//fr.wikipedia.org/wiki/Acide_lignoc%C3%A9rique","//lv.wikipedia.org/wiki/Lignocer%C4%ABnsk%C4%81be","//ja.wikipedia.org/wiki/%E3%83%AA%E3%82%B0%E3%83%8E%E3%82%BB%E3%83%AA%E3%83%B3%E9%85%B8","//pl.wikipedia.org/wiki/Kwas_lignocerynowy","//pt.wikipedia.org/wiki/%C3%81cido_lignoc%C3%A9rico","//ru.wikipedia.org/wiki/%D0%9B%D0%B8%D0%B3%D0%BD%D0%BE%D1%86%D0%B5%D1%80%D0%B8%D0%BD%D0%BE%D0%B2%D0%B0%D1%8F_%D0%BA%D0%B8%D1%81%D0%BB%D0%BE%D1%82%D0%B0","//sr.wikipedia.org/wiki/Lignocerinska_kiselina","//fi.wikipedia.org/wiki/Lignoseriinihappo","//te.wikipedia.org/wiki/%E0%B0%B2%E0%B0%BF%E0%B0%97%E0%B1%8D%E0%B0%A8%E0%B1%8B%E0%B0%B8%E0%B1%86%E0%B0%B0%E0%B0%BF%E0%B0%95%E0%B1%8D_%E0%B0%86%E0%B0%AE%E0%B1%8D%E0%B0%B2%E0%B0%82","//www.wikidata.org/wiki/Q422634#sitelinks","//en.wikipedia.org/wiki/Wikipedia:Text_of_Creative_Commons_Attribution-ShareAlike_3.0_Unported_License","//creativecommons.org/licenses/by-sa/3.0/","//wikimediafoundation.org/wiki/Terms_of_Use","//wikimediafoundation.org/wiki/Privacy_policy","//www.wikimediafoundation.org/","//wikimediafoundation.org/wiki/Privacy_policy","/wiki/Wikipedia:About","/wiki/Wikipedia:General_disclaimer","//en.wikipedia.org/wiki/Wikipedia:Contact_us","http://en.m.wikipedia.org/wiki/Lignoceric_acid","//wikimediafoundation.org/","//bits.wikimedia.org/images/wikimedia-button.png","//www.mediawiki.org/","//bits.wikimedia.org/static-1.22wmf5/skins/common/images/poweredby_mediawiki_88x31.png","/w/index.php?title=MediaWiki:Gadget-ReferenceTooltips.js&action=raw&ctype=text/javascript&508635914","//bits.wikimedia.org/en.wikipedia.org/load.php?debug=false&lang=en&modules=site&only=scripts&skin=vector&*"],"instances":[],"pdf":[],"categories":["Fatty acids","Waxes","Papermaking"],"headings":["See also","References"],"image":["//upload.wikimedia.org/wikipedia/commons/thumb/d/db/Lignocer%C4%ABnsk%C4%81be.svg/200px-Lignocer%C4%ABnsk%C4%81be.svg.png","//upload.wikimedia.org/wikipedia/en/thumb/f/fb/Yes_check.svg/7px-Yes_check.svg.png","//upload.wikimedia.org/wikipedia/en/thumb/f/fb/Yes_check.svg/7px-Yes_check.svg.png","//upload.wikimedia.org/wikipedia/en/thumb/f/fb/Yes_check.svg/7px-Yes_check.svg.png","//upload.wikimedia.org/wikipedia/commons/thumb/a/a2/X_mark.svg/7px-X_mark.svg.png","//upload.wikimedia.org/wikipedia/en/thumb/f/fb/Yes_check.svg/7px-Yes_check.svg.png","//upload.wikimedia.org/wikipedia/en/thumb/f/fb/Yes_check.svg/7px-Yes_check.svg.png","//upload.wikimedia.org/wikipedia/en/thumb/f/fb/Yes_check.svg/7px-Yes_check.svg.png","//upload.wikimedia.org/wikipedia/commons/thumb/a/a2/X_mark.svg/14px-X_mark.svg.png","//upload.wikimedia.org/wikipedia/en/thumb/f/fb/Yes_check.svg/10px-Yes_check.svg.png","//upload.wikimedia.org/wikipedia/commons/thumb/a/a2/X_mark.svg/10px-X_mark.svg.png","//upload.wikimedia.org/wikipedia/commons/thumb/c/cf/Formamide-3D-vdW.png/30px-Formamide-3D-vdW.png","//bits.wikimedia.org/static-1.22wmf5/skins/vector/images/search-ltr.png?303-4","//bits.wikimedia.org/images/wikimedia-button.png","//bits.wikimedia.org/static-1.22wmf5/skins/common/images/poweredby_mediawiki_88x31.png"],"tags":[],"members":[],"related":["Fatty_acid","Behenic_acid","Cerotic_acid","Wood_tar","Cerebroside","Fat","Peanut_oil","Lignin","Lignoceryl_alcohol","List_of_saturated_fatty_acids"]}