{"cursor":"4904","size":15,"audio":[],"currentlang":"en","article":"\n'Oil of cloves', also known as 'clove oil', is an essential oil from the clove\nplant, [[Syzygium aromaticum]]. It has the CAS number 8000-34-8.\n\nIt is a natural analgaesic and antiseptic used primarily in dentistry for its\nmain ingredient eugenol. It can also be purchased in pharmacies over the\ncounter, as a home remedy for dental pain relief, mainly toothache. It is also\noften found in the aromatherapy section of health food stores and used in the\nflavoring of some medicines. The main oil-producing countries are Madagascar and\nIndonesia.\n\nClove oil is widely used in microscopical preparation, since it is miscible with\nCanada balsam and has a similar refractive index to glass (1.53).\n\nOil of cloves is marketed for a variety of medicinal uses; and scientific\nevidence indicates that it kills parasitic\nmites, http://www.ncbi.nlm.nih.gov/pmc/articles/PMC1661675/ if not\ncancer. \n\nOil of cloves (usually listed as clove oil) is also used as an ingredient in cat\ndeterrent sprays coupled with garlic oil and Sodium Lauryl Sulfate and other\ningredients.\n","linknr":162,"url":"Oil_of_clove","recorded":1371246782,"links":["/w/index.php?title=Oil_of_cloves&action=edit","/w/index.php?title=Oil_of_cloves&action=edit","//bits.wikimedia.org/favicon/wikipedia.ico","/w/opensearch_desc.php","//en.wikipedia.org/w/api.php?action=rsd","//creativecommons.org/licenses/by-sa/3.0/","/w/index.php?title=Special:RecentChanges&feed=atom","/wiki/Oil_of_cloves","//bits.wikimedia.org/en.wikipedia.org/load.php?debug=false&lang=en&modules=ext.gadget.DRN-wizard%2CReferenceTooltips%2Ccharinsert%2Cteahouse%7Cext.rtlcite%2Cwikihiero%7Cmediawiki.legacy.commonPrint%2Cshared%7Cmw.PopUpMediaTransform%7Cskins.vector&only=styles&skin=vector&*","//bits.wikimedia.org/en.wikipedia.org/load.php?debug=false&lang=en&modules=site&only=styles&skin=vector&*","//bits.wikimedia.org/en.wikipedia.org/load.php?debug=false&lang=en&modules=startup&only=scripts&skin=vector&*","//bits.wikimedia.org/geoiplookup","//meta.wikimedia.org","/w/index.php?title=Oil_of_clove&redirect=no","#mw-navigation","#p-search","/wiki/File:CloveEssOil.png","//upload.wikimedia.org/wikipedia/commons/thumb/4/48/CloveEssOil.png/220px-CloveEssOil.png","/wiki/File:CloveEssOil.png","//bits.wikimedia.org/static-1.22wmf4/skins/common/images/magnify-clip.png","/wiki/Essential_oil","/wiki/Clove","/wiki/Syzygium_aromaticum","/wiki/CAS_number","/wiki/Analgaesic","/wiki/Antiseptic","/wiki/Dentistry","/wiki/Eugenol","/wiki/Pharmacies","/wiki/Home_remedy","/wiki/Toothache","/wiki/Aromatherapy","/wiki/Medicine","/wiki/Madagascar","/wiki/Indonesia","#cite_note-Lawless-1","/wiki/Canada_balsam","/wiki/Refractive_index","#cite_note-2","#cite_note-ACS-3","#Types","#Efficacy","#Side_effects","#Regulation","#References","/w/index.php?title=Oil_of_cloves&action=edit&section=1","#cite_note-Lawless-1","/wiki/Eugenol","/w/index.php?title=Eugenyl_acetate&action=edit&redlink=1","/wiki/Caryophyllene","/w/index.php?title=Oil_of_cloves&action=edit&section=2","/wiki/Food_and_Drug_Administration","#cite_note-4","/wiki/Kuwait_University","/wiki/Benzocaine","/wiki/Topical_anesthetic","#cite_note-Alqareer_2006-5","#cite_note-6","#cite_note-ACS-3","/w/index.php?title=Oil_of_cloves&action=edit&section=3","#cite_note-ACS-3","#cite_note-ACS-3","#cite_note-ACS-3","/w/index.php?title=Oil_of_cloves&action=edit&section=4","/wiki/Commission_E","#cite_note-ACS-3","#cite_note-Commission_E-7","/w/index.php?title=Oil_of_cloves&action=edit&section=5","/wiki/File:Foodlogo2.svg","//upload.wikimedia.org/wikipedia/commons/thumb/d/d6/Foodlogo2.svg/32px-Foodlogo2.svg.png","/wiki/Portal:Food","/wiki/File:Dentistry_stub.svg","//upload.wikimedia.org/wikipedia/commons/thumb/5/51/Dentistry_stub.svg/14px-Dentistry_stub.svg.png","/wiki/Portal:Dentistry","#cite_ref-Lawless_1-0","#cite_ref-Lawless_1-1","/wiki/International_Standard_Book_Number","/wiki/Special:BookSources/1-85230-661-0","#cite_ref-2","http://www.ncbi.nlm.nih.gov/pmc/articles/PMC1661675/","#cite_ref-ACS_3-0","#cite_ref-ACS_3-1","#cite_ref-ACS_3-2","#cite_ref-ACS_3-3","#cite_ref-ACS_3-4","#cite_ref-ACS_3-5","http://www.cancer.org/Treatment/TreatmentsandSideEffects/ComplementaryandAlternativeMedicine/HerbsVitaminsandMinerals/cloves","#cite_ref-4","http://www.nlm.nih.gov/medlineplus/druginfo/natural/251.html","#cite_ref-Alqareer_2006_5-0","/wiki/Digital_object_identifier","http://dx.doi.org/10.1016%2Fj.jdent.2006.01.009","/wiki/PubMed_Identifier","//www.ncbi.nlm.nih.gov/pubmed/16530911","/wiki/Help:CS1_errors#accessdate_missing_url","#cite_ref-6","http://well.blogs.nytimes.com/2011/02/17/remedies-clove-oil-for-tooth-pain/","#cite_ref-Commission_E_7-0","/wiki/International_Standard_Book_Number","/wiki/Special:BookSources/978-0-9655555-0-0","/wiki/Help:CS1_errors#accessdate_missing_url","http://en.wikipedia.org/w/index.php?title=Oil_of_cloves&oldid=557340180","/wiki/Help:Categories","/wiki/Category:Essential_oils","/wiki/Category:Dental_materials","/wiki/Category:Pages_using_citations_with_accessdate_and_no_URL","/w/index.php?title=Special:UserLogin&returnto=Oil+of+cloves&type=signup","/w/index.php?title=Special:UserLogin&returnto=Oil+of+cloves","/wiki/Oil_of_cloves","/wiki/Talk:Oil_of_cloves","#","/wiki/Oil_of_cloves","/w/index.php?title=Oil_of_cloves&action=edit","/w/index.php?title=Oil_of_cloves&action=history","#","/w/index.php","//bits.wikimedia.org/static-1.22wmf6/skins/vector/images/search-ltr.png?303-4","/wiki/Main_Page","/wiki/Main_Page","/wiki/Portal:Contents","/wiki/Portal:Featured_content","/wiki/Portal:Current_events","/wiki/Special:Random","//donate.wikimedia.org/wiki/Special:FundraiserRedirector?utm_source=donate&utm_medium=sidebar&utm_campaign=C13_en.wikipedia.org&uselang=en","/wiki/Help:Contents","/wiki/Wikipedia:About","/wiki/Wikipedia:Community_portal","/wiki/Special:RecentChanges","//en.wikipedia.org/wiki/Wikipedia:Contact_us","/wiki/Special:WhatLinksHere/Oil_of_cloves","/wiki/Special:RecentChangesLinked/Oil_of_cloves","/wiki/Wikipedia:File_Upload_Wizard","/wiki/Special:SpecialPages","/w/index.php?title=Oil_of_cloves&oldid=557340180","/w/index.php?title=Oil_of_cloves&action=info","/w/index.php?title=Special:Cite&page=Oil_of_cloves&id=557340180","/w/index.php?title=Special:Book&bookcmd=book_creator&referer=Oil+of+cloves","/w/index.php?title=Special:Book&bookcmd=render_article&arttitle=Oil+of+cloves&oldid=557340180&writer=rl","/w/index.php?title=Oil_of_cloves&printable=yes","//ar.wikipedia.org/wiki/%D8%B2%D9%8A%D8%AA_%D9%82%D8%B1%D9%86%D9%81%D9%84","//de.wikipedia.org/wiki/Eugenol","//it.wikipedia.org/wiki/Olio_di_chiodi_di_garofano","//nl.wikipedia.org/wiki/Kruidnagelolie","//pl.wikipedia.org/wiki/Olejek_go%C5%BAdzikowy","//ru.wikipedia.org/wiki/%D0%93%D0%B2%D0%BE%D0%B7%D0%B4%D0%B8%D1%87%D0%BD%D0%BE%D0%B5_%D0%BC%D0%B0%D1%81%D0%BB%D0%BE","//fi.wikipedia.org/wiki/Neilikka%C3%B6ljy","//www.wikidata.org/wiki/Q2195458#sitelinks","//en.wikipedia.org/wiki/Wikipedia:Text_of_Creative_Commons_Attribution-ShareAlike_3.0_Unported_License","//creativecommons.org/licenses/by-sa/3.0/","//wikimediafoundation.org/wiki/Terms_of_Use","//wikimediafoundation.org/wiki/Privacy_policy","//www.wikimediafoundation.org/","//wikimediafoundation.org/wiki/Privacy_policy","/wiki/Wikipedia:About","/wiki/Wikipedia:General_disclaimer","//en.wikipedia.org/wiki/Wikipedia:Contact_us","http://en.m.wikipedia.org/wiki/Oil_of_cloves","//wikimediafoundation.org/","//bits.wikimedia.org/images/wikimedia-button.png","//www.mediawiki.org/","//bits.wikimedia.org/static-1.22wmf6/skins/common/images/poweredby_mediawiki_88x31.png","/w/index.php?title=MediaWiki:Gadget-ReferenceTooltips.js&action=raw&ctype=text/javascript&508635914","//bits.wikimedia.org/en.wikipedia.org/load.php?debug=false&lang=en&modules=site&only=scripts&skin=vector&*"],"instances":[],"pdf":[],"categories":["Essential oils|Cloves","Dental materials"],"headings":["Types","Efficacy","Side effects","Regulation","References"],"image":["//upload.wikimedia.org/wikipedia/commons/thumb/4/48/CloveEssOil.png/220px-CloveEssOil.png","//bits.wikimedia.org/static-1.22wmf4/skins/common/images/magnify-clip.png","//upload.wikimedia.org/wikipedia/commons/thumb/d/d6/Foodlogo2.svg/32px-Foodlogo2.svg.png","//upload.wikimedia.org/wikipedia/commons/thumb/5/51/Dentistry_stub.svg/14px-Dentistry_stub.svg.png","//bits.wikimedia.org/static-1.22wmf6/skins/vector/images/search-ltr.png?303-4","//bits.wikimedia.org/images/wikimedia-button.png","//bits.wikimedia.org/static-1.22wmf6/skins/common/images/poweredby_mediawiki_88x31.png"],"tags":[],"members":[],"related":["Essential_oil","Clove","CAS_number","Analgaesic","Antiseptic","Dentistry","Eugenol","Pharmacies","Home_remedy","Toothache","Aromatherapy","Medicine","Madagascar","Indonesia","Canada_balsam","Refractive_index","Eugenol","Eugenyl_acetate","Caryophyllene","Food_and_Drug_Administration","Kuwait_University","Benzocaine","Topical_anesthetic"]}