{"cursor":"4645","size":15,"audio":[],"currentlang":"en","article":"{{chembox\n| Verifiedfields = changed Watchedfields = changed verifiedrevid = 446304818\n|ImageFile=Uridinmonophosphat protoniert.svg |ImageSize= |IUPACName=\n|OtherNames= |Section1= {{Chembox Identifiers\n|  CASNo=58-97-9 CASNo_Ref = PubChem = 6030 ChemSpiderID_Ref = ChemSpiderID =\n|  5808 SMILES = c1cn(c(=O)[nH]c1=O)[C@H]2[C@@H]([C@@H]([C@H](O2)COP(=O)(O)O)O)O\n|  InChI = 1/C9H13N2O9P/c12-5-1-2-11(9(15)10-5)8-7(14)6(13)4(20-8)3-19-21(16,17)18/h1-\n|  2,4,6-8,13-14H,3H2,(H,10,12,15)(H2,16,17,18)/t4-,6-,7-,8-/m1/s1 InChIKey =\n|  DJJCXFVJDGTHFX-XVFCMESIBD StdInChI_Ref = StdInChI = 1S/C9H13N2O9P/c12-5-1-2-11(9(15)10-5)8-7(14)6(13)4(20-8)3-19-21(16,17)18/h1-\n|  2,4,6-8,13-14H,3H2,(H,10,12,15)(H2,16,17,18)/t4-,6-,7-,8-/m1/s1\n|  StdInChIKey_Ref = StdInChIKey = DJJCXFVJDGTHFX-XVFCMESISA-N\n|  MeSHName=Uridine+monophosphate\n  }} |Section2= {{Chembox Properties\n|  Formula=C 9H 13 N2 O9 P\n|  MolarMass=324.181 Appearance= pKa= 1.0, 6.4, 9.5 Density= MeltingPt= 202 °C\n|  (dec.) M. Lide, D. R. Lide: CRC Handbook of Chemistry and\n|  Physics. 87. Auflage, S. 3-56, CRC Press, 1998, ISBN 978-0-8493-0594-8\n|  BoilingPt= Solubility= good, also in methanol \n  }} |Section3= {{Chembox Hazards\n|  MainHazards= FlashPt= Autoignition=\n  }} }} 'Uridine monophosphate', also known as '5'-uridylic acid' and\n  abbreviated 'UMP', is a nucleotide that is used as a monomer in RNA. It is an\n  ester of phosphoric acid with the nucleoside uridine. UMP consists of the\n  phosphate group, the pentose sugar ribose, and the nucleobase uracil; hence,\n  it is a ribonucleoside monophosphate. Another common shorthand for the\n  molecule is 'uridylate' - the deprotonated form of the molecule, which is\n  predominant in aqueous solution. As a substituent it takes the form of the\n  prefix 'uridylyl-'.\n","linknr":396,"url":"uridylyl","recorded":1364206449,"links":["/w/index.php?title=Uridine_monophosphate&action=edit","/w/index.php?title=Uridine_monophosphate&action=edit","//en.wikipedia.org/apple-touch-icon.png","//bits.wikimedia.org/favicon/wikipedia.ico","/w/opensearch_desc.php","//en.wikipedia.org/w/api.php?action=rsd","//creativecommons.org/licenses/by-sa/3.0/","/w/index.php?title=Special:RecentChanges&feed=atom","/wiki/Uridine_monophosphate","//bits.wikimedia.org/en.wikipedia.org/load.php?debug=false&lang=en&modules=ext.gadget.DRN-wizard%2CReferenceTooltips%2Ccharinsert%2Cteahouse%7Cext.wikihiero%7Cmediawiki.legacy.commonPrint%2Cshared%7Cmw.PopUpMediaTransform%7Cskins.vector&only=styles&skin=vector&*","//bits.wikimedia.org/en.wikipedia.org/load.php?debug=false&lang=en&modules=site&only=styles&skin=vector&*","//bits.wikimedia.org/en.wikipedia.org/load.php?debug=false&lang=en&modules=startup&only=scripts&skin=vector&*","//bits.wikimedia.org/geoiplookup","//meta.wikimedia.org","/w/index.php?title=Uridylyl&redirect=no","#mw-head","#p-search","/wiki/File:Uridinmonophosphat_protoniert.svg","//upload.wikimedia.org/wikipedia/commons/thumb/9/90/Uridinmonophosphat_protoniert.svg/200px-Uridinmonophosphat_protoniert.svg.png","/wiki/CAS_registry_number","http://www.commonchemistry.org/ChemicalDetail.aspx?ref=58-97-9","//upload.wikimedia.org/wikipedia/en/thumb/f/fb/Yes_check.svg/7px-Yes_check.svg.png","/wiki/PubChem","http://pubchem.ncbi.nlm.nih.gov/summary/summary.cgi?cid=6030","/wiki/ChemSpider","http://www.chemspider.com/5808","//upload.wikimedia.org/wikipedia/commons/thumb/a/a2/X_mark.svg/7px-X_mark.svg.png","/wiki/Medical_Subject_Headings","http://www.nlm.nih.gov/cgi/mesh/2007/MB_cgi?mode=&term=Uridine+monophosphate","/wiki/Jmol","http://chemapps.stolaf.edu/jmol/jmol.php?model=c1cn%28c%28%3DO%29%5BnH%5Dc1%3DO%29%5BC%40H%5D2%5BC%40%40H%5D%28%5BC%40%40H%5D%28%5BC%40H%5D%28O2%29COP%28%3DO%29%28O%29O%29O%29O","/wiki/Simplified_molecular-input_line-entry_system","/wiki/International_Chemical_Identifier","//upload.wikimedia.org/wikipedia/commons/thumb/a/a2/X_mark.svg/7px-X_mark.svg.png","//upload.wikimedia.org/wikipedia/commons/thumb/a/a2/X_mark.svg/7px-X_mark.svg.png","/wiki/Chemical_formula","/wiki/Molar_mass","/wiki/Melting_point","#cite_note-lide-1","/wiki/Solubility","/wiki/Water","#cite_note-lide-1","/wiki/Acid_dissociation_constant","//upload.wikimedia.org/wikipedia/commons/thumb/a/a2/X_mark.svg/14px-X_mark.svg.png","//en.wikipedia.org/w/index.php?title=Special:ComparePages&rev1=446304818&page2=Uridine+monophosphate","/wiki/Wikipedia:WikiProject_Chemicals/Chembox_validation","//upload.wikimedia.org/wikipedia/en/thumb/f/fb/Yes_check.svg/10px-Yes_check.svg.png","//upload.wikimedia.org/wikipedia/commons/thumb/a/a2/X_mark.svg/10px-X_mark.svg.png","/wiki/Standard_state","/wiki/Wikipedia:Chemical_infobox#References","/wiki/Nucleotide","/wiki/Monomer","/wiki/RNA","/wiki/Ester","/wiki/Phosphoric_acid","/wiki/Nucleoside","/wiki/Uridine","/wiki/Phosphate","/wiki/Functional_group","/wiki/Pentose","/wiki/Sugar","/wiki/Ribose","/wiki/Nucleobase","/wiki/Uracil","/w/index.php?title=Ribonucleoside_monophosphate&action=edit&redlink=1","/wiki/Substituent","#Biosynthesis","#Effects_on_animal_intelligence","#Uridine_Monophosphate_in_Foods","#References","#See_also","/w/index.php?title=Uridine_monophosphate&action=edit&section=1","/wiki/Orotidine_5%27-monophosphate","/wiki/Enzyme","/wiki/Orotidylate_decarboxylase","#cite_note-Stryer_2006-2","/wiki/UMP_synthase","#cite_note-3","/wiki/Orotic_aciduria","/w/index.php?title=Uridine_monophosphate&action=edit&section=2","/wiki/Gerbil","/wiki/Docosahexaenoic_acid","#cite_note-4","#cite_note-5","/w/index.php?title=Uridine_monophosphate&action=edit&section=3","/wiki/Uridine","/wiki/Uridine","/wiki/RNA","/wiki/RNA","/wiki/Uridine","/w/index.php?title=Uridine_monophosphate&action=edit&section=4","#cite_ref-lide_1-0","#cite_ref-lide_1-1","/wiki/Special:BookSources/9780849305948","#cite_ref-Stryer_2006_2-0","/wiki/International_Standard_Book_Number","/wiki/Special:BookSources/0-7167-8724-5","#cite_ref-3","http://www.pubmedcentral.nih.gov/articlerender.fcgi?artid=1715274","#cite_ref-4","http://www.ncbi.nlm.nih.gov/pmc/articles/PMC2574024","/wiki/Digital_object_identifier","http://dx.doi.org/10.1096%2Ffj.08-112425","/wiki/PubMed_Central","//www.ncbi.nlm.nih.gov/pmc/articles/PMC2574024","/wiki/PubMed_Identifier","//www.ncbi.nlm.nih.gov/pubmed/18606862","http://en.wikipedia.org/w/index.php?title=Template:Cite_pmid/18606862&action=edit&editintro=Template:Cite_pmid/editintro2","#cite_ref-5","http://www.sciencedaily.com/releases/2008/07/080702150706.htm","/w/index.php?title=Uridine_monophosphate&action=edit&section=5","/wiki/Nucleoside","/wiki/Nucleotide","/wiki/DNA","/wiki/RNA","/wiki/Oligonucleotide","/wiki/Pyrimidine_biosynthesis","/w/index.php?title=Ribonucleoside_monophosphate&action=edit&redlink=1","/wiki/Template:Nucleobases,_nucleosides,_and_nucleotides","/wiki/Template_talk:Nucleobases,_nucleosides,_and_nucleotides","//en.wikipedia.org/w/index.php?title=Template:Nucleobases,_nucleosides,_and_nucleotides&action=edit","/wiki/Nucleic_acid","/wiki/Nucleobase","/wiki/Purine","/wiki/Adenine","/wiki/Guanine","/wiki/Purine_analogue","/wiki/Pyrimidine","/wiki/Uracil","/wiki/Thymine","/wiki/Cytosine","/wiki/Pyrimidine_analogue","/wiki/Nucleoside","/wiki/Ribonucleoside","/wiki/Adenosine","/wiki/Guanosine","/wiki/5-Methyluridine","/wiki/Uridine","/wiki/Cytidine","/wiki/Deoxyribonucleoside","/wiki/Deoxyadenosine","/wiki/Deoxyguanosine","/wiki/Thymidine","/wiki/Deoxyuridine","/wiki/Deoxycytidine","/wiki/Nucleotide","/wiki/Ribonucleotide","/wiki/Adenosine_monophosphate","/wiki/Guanosine_monophosphate","/w/index.php?title=5-Methyluridine_monophosphate&action=edit&redlink=1","/wiki/Cytidine_monophosphate","/wiki/Deoxyribonucleotide","/wiki/Deoxyadenosine_monophosphate","/wiki/Deoxyguanosine_monophosphate","/wiki/Thymidine_monophosphate","/wiki/Deoxyuridine_monophosphate","/wiki/Deoxycytidine_monophosphate","/wiki/Cyclic_nucleotide","/wiki/Cyclic_adenosine_monophosphate","/wiki/Cyclic_guanosine_monophosphate","/wiki/Cyclic_di-GMP","/wiki/Cyclic_ADP-ribose","/wiki/Nucleoside_diphosphate","/wiki/Adenosine_diphosphate","/wiki/Guanosine_diphosphate","/w/index.php?title=5-Methyluridine_diphosphate&action=edit&redlink=1","/wiki/Uridine_diphosphate","/wiki/Cytidine_diphosphate","/wiki/Deoxyadenosine_diphosphate","/wiki/Deoxyguanosine_diphosphate","/wiki/Thymidine_diphosphate","/w/index.php?title=Deoxyuridine_diphosphate&action=edit&redlink=1","/wiki/Deoxycytidine_diphosphate","/wiki/Nucleoside_triphosphate","/wiki/Adenosine_triphosphate","/wiki/Guanosine_triphosphate","/wiki/5-Methyluridine_triphosphate","/wiki/Uridine_triphosphate","/wiki/Cytidine_triphosphate","/wiki/Deoxyadenosine_triphosphate","/wiki/Deoxyguanosine_triphosphate","/wiki/Thymidine_triphosphate","/w/index.php?title=Deoxyuridine_triphosphate&action=edit&redlink=1","/wiki/Deoxycytidine_triphosphate","/wiki/Biochemistry","/wiki/Template:Metabolism","/wiki/Template:Carbohydrates","/wiki/Template:Alcohols","/wiki/Template:Glycoproteins","/wiki/Template:Glycosides","/wiki/Template:Lipids","/wiki/Template:Eicosanoids","/wiki/Template:Fatty_acids","/wiki/Template:Fatty-acid_metabolism_intermediates","/wiki/Template:Phospholipids","/wiki/Template:Sphingolipids","/wiki/Template:Cholesterol_and_steroid_intermediates","/wiki/Template:Nucleic_acids","/wiki/Template:Nucleobases,_nucleosides,_and_nucleotides","/wiki/Template:Nucleotide_metabolism_intermediates","/wiki/Template:Protein_topics","/wiki/Template:AminoAcids","/wiki/Template:Amino_acid_metabolism_intermediates","/wiki/Template:Tetrapyrroles","/wiki/Template:Heme_metabolism_intermediates","/wiki/Template:Nucleotide_metabolism_intermediates","/wiki/Template_talk:Nucleotide_metabolism_intermediates","//en.wikipedia.org/w/index.php?title=Template:Nucleotide_metabolism_intermediates&action=edit","/wiki/Nucleotide","/wiki/Metabolic_intermediate","/wiki/Purine_metabolism","/wiki/Ribose_5-phosphate","/wiki/Inosinic_acid","/wiki/Ribose_5-phosphate","/wiki/Phosphoribosyl_pyrophosphate","/wiki/Phosphoribosylamine","/wiki/Glycineamide_ribonucleotide","/wiki/Phosphoribosyl-N-formylglycineamide","/wiki/5%27-Phosphoribosylformylglycinamidine","/wiki/5%27-Phosphoribosyl-5-aminoimidazole","/wiki/5%27-Phosphoribosyl-4-carboxy-5-aminoimidazole","/wiki/SAICAR","/wiki/AICA_ribonucleotide","/wiki/5-Formamidoimidazole-4-carboxamide_ribotide","/wiki/Adenosine_monophosphate","/wiki/Adenylosuccinate","/wiki/Guanosine_monophosphate","/wiki/Xanthosine_monophosphate","/wiki/Hypoxanthine","/wiki/Xanthine","/wiki/Uric_acid","/wiki/5-Hydroxyisourate","/wiki/Pyrimidine_metabolism","/wiki/Carbamoyl_phosphate","/wiki/Carbamoyl_aspartic_acid","/wiki/4,5-Dihydroorotic_acid","/wiki/Orotic_acid","/wiki/Orotidine_5%27-monophosphate","/wiki/Uracil","/wiki/Dihydrouracil","/wiki/3-Ureidopropionic_acid","/wiki/Beta-Alanine","/wiki/Thymine","/wiki/Dihydrothymine","/wiki/Beta-Ureidoisobutyric_acid","/wiki/3-Aminoisobutyric_acid","/wiki/Template:Medicine_navs","/wiki/Inborn_error_of_metabolism","/wiki/Template:Metabolism","/wiki/Template:Citric_acid_cycle_enzymes_and_ETC","/wiki/Template:Glycolysis_enzymes","/wiki/Template:Glycogenesis_and_glycogenolysis_enzymes","/wiki/Template:Fructose_and_galactose_metabolism_enzymes","/wiki/Template:Pentose_phosphate_pathway_enzymes","/wiki/Template:Glycoprotein_metabolism_enzymes","/wiki/Template:Proteoglycan_metabolism_enzymes","/wiki/Template:Lipid_metabolism_enzymes","/wiki/Template:Phospholipid_metabolism","/wiki/Template:Cholesterol_and_steroid_metabolism_enzymes","/wiki/Template:Lipoprotein_metabolism","/wiki/Template:Glycolipid/sphingolipid_metabolism_enzymes","/wiki/Template:Eicosanoid_metabolism_enzymes","/wiki/Template:Amino_acid_metabolism_enzymes","/wiki/Template:Urea_cycle_enzymes","/wiki/Template:Nucleotide_metabolism_enzymes","/wiki/Template:Porphyrin_metabolism_enzymes","/wiki/Template:Disorders_of_TCA_and_ETC","/wiki/Template:Inborn_errors_of_carbohydrate_metabolism","/wiki/Template:Glycoprotein_disorders","/wiki/Template:Proteoglycan_disorders","/wiki/Template:Fatty-acid_metabolism_disorders","/wiki/Template:Phospholipid_metabolism_disorders","/wiki/Template:Defects_of_cholesterol_and_steroid_metabolism","/wiki/Template:Lipid_metabolism_disorders","/wiki/Template:Lipid_storage_disorders","/wiki/Template:Eicosanoid_metabolism_disorders","/wiki/Template:Amino_acid_metabolic_pathology","/wiki/Template:Inborn_errors_of_purine-pyrimidine_metabolism","/wiki/Template:Heme_metabolism_disorders","/wiki/Template:Eponymous_medical_signs_for_endocrinology,_nutrition,_and_metabolism","/wiki/ATC_code_A16","/wiki/Template:Lipid_modifying_agents","/wiki/Template:Citric_acid_cycle","/wiki/Template:Glycolysis","/wiki/Template:Glycogenesis_and_glycogenolysis_metabolic_intermediates","/wiki/Template:Fructose_and_galactose_metabolic_intermediates","/wiki/Template:Pentose_phosphate_pathway_intermediates","/wiki/Template:Glycoproteins","/wiki/Template:Glycosaminoglycans","/wiki/Template:Fatty-acid_metabolism_intermediates","/wiki/Template:Phospholipids","/wiki/Template:Cholesterol_and_steroid_intermediates","/wiki/Template:Sphingolipids","/wiki/Template:Eicosanoids","/wiki/Template:Amino_acid_metabolism_intermediates","/wiki/Template:Urea_cycle","/wiki/Template:Nucleotide_metabolism_intermediates","/wiki/Template:Heme_metabolism_intermediates","/wiki/Biochemistry","/wiki/Template:Metabolism","/wiki/Template:Carbohydrates","/wiki/Template:Alcohols","/wiki/Template:Glycoproteins","/wiki/Template:Glycosides","/wiki/Template:Lipids","/wiki/Template:Eicosanoids","/wiki/Template:Fatty_acids","/wiki/Template:Fatty-acid_metabolism_intermediates","/wiki/Template:Phospholipids","/wiki/Template:Sphingolipids","/wiki/Template:Cholesterol_and_steroid_intermediates","/wiki/Template:Nucleic_acids","/wiki/Template:Nucleobases,_nucleosides,_and_nucleotides","/wiki/Template:Nucleotide_metabolism_intermediates","/wiki/Template:Protein_topics","/wiki/Template:AminoAcids","/wiki/Template:Amino_acid_metabolism_intermediates","/wiki/Template:Tetrapyrroles","/wiki/Template:Heme_metabolism_intermediates","/wiki/File:AlphaHelixSection.svg","//upload.wikimedia.org/wikipedia/commons/thumb/f/ff/AlphaHelixSection.svg/40px-AlphaHelixSection.svg.png","/wiki/Biochemistry","/wiki/Wikipedia:Stub","//en.wikipedia.org/w/index.php?title=Uridine_monophosphate&action=edit","/wiki/Template:Biochem-stub","/wiki/Template_talk:Biochem-stub","//en.wikipedia.org/w/index.php?title=Template:Biochem-stub&action=edit","http://en.wikipedia.org/w/index.php?title=Uridine_monophosphate&oldid=540077349","/wiki/Help:Categories","/wiki/Category:Nucleotides","/wiki/Category:Pyrimidinediones","/wiki/Category:Biochemistry_stubs","/wiki/Category:Articles_with_changed_ChemSpider_identifier","/wiki/Category:Chemboxes_which_contain_changes_to_verified_fields","/wiki/Category:Chemboxes_which_contain_changes_to_watched_fields","/w/index.php?title=Special:UserLogin&returnto=Uridine+monophosphate&type=signup","/w/index.php?title=Special:UserLogin&returnto=Uridine+monophosphate","/wiki/Uridine_monophosphate","/wiki/Talk:Uridine_monophosphate","#","/wiki/Uridine_monophosphate","/w/index.php?title=Uridine_monophosphate&action=edit","/w/index.php?title=Uridine_monophosphate&action=history","#","/w/index.php","//bits.wikimedia.org/static-1.21wmf11/skins/vector/images/search-ltr.png?303-4","/wiki/Main_Page","/wiki/Main_Page","/wiki/Portal:Contents","/wiki/Portal:Featured_content","/wiki/Portal:Current_events","/wiki/Special:Random","//donate.wikimedia.org/wiki/Special:FundraiserRedirector?utm_source=donate&utm_medium=sidebar&utm_campaign=C13_en.wikipedia.org&uselang=en","/wiki/Help:Contents","/wiki/Wikipedia:About","/wiki/Wikipedia:Community_portal","/wiki/Special:RecentChanges","/wiki/Wikipedia:Contact_us","/wiki/Special:WhatLinksHere/Uridine_monophosphate","/wiki/Special:RecentChangesLinked/Uridine_monophosphate","/wiki/Wikipedia:File_Upload_Wizard","/wiki/Special:SpecialPages","/w/index.php?title=Uridine_monophosphate&oldid=540077349","/w/index.php?title=Uridine_monophosphate&action=info","/w/index.php?title=Special:Cite&page=Uridine_monophosphate&id=540077349","/w/index.php?title=Special:Book&bookcmd=book_creator&referer=Uridine+monophosphate","/w/index.php?title=Special:Book&bookcmd=render_article&arttitle=Uridine+monophosphate&oldid=540077349&writer=rl","/w/index.php?title=Uridine_monophosphate&printable=yes","//ca.wikipedia.org/wiki/Monofosfat_d%27uridina","//da.wikipedia.org/wiki/Uridinmonofosfat","//de.wikipedia.org/wiki/Uridinmonophosphat","//fa.wikipedia.org/wiki/%D8%A7%D9%88%D8%B1%DB%8C%D8%AF%DB%8C%D9%86_%D9%85%D9%88%D9%86%D9%88%D9%81%D8%B3%D9%81%D8%A7%D8%AA","//fr.wikipedia.org/wiki/Uridine_monophosphate","//gl.wikipedia.org/wiki/Urid%C3%ADn_monofosfato","//it.wikipedia.org/wiki/Uridina_monofosfato","//nl.wikipedia.org/wiki/Uridinemonofosfaat","//ja.wikipedia.org/wiki/%E3%82%A6%E3%83%AA%E3%82%B8%E3%83%AB%E9%85%B8","//pl.wikipedia.org/wiki/Urydyno-5%27-monofosforan","//sr.wikipedia.org/wiki/Uridin-monofosfat","//zh.wikipedia.org/wiki/%E5%96%AE%E7%A3%B7%E9%85%B8%E5%B0%BF%E8%8B%B7","//www.wikidata.org/wiki/Special:ItemByTitle/enwiki/Uridine monophosphate","//en.wikipedia.org/wiki/Wikipedia:Text_of_Creative_Commons_Attribution-ShareAlike_3.0_Unported_License","//creativecommons.org/licenses/by-sa/3.0/","//wikimediafoundation.org/wiki/Terms_of_Use","//www.wikimediafoundation.org/","//en.wikipedia.org/wiki/Wikipedia:Contact_us","//wikimediafoundation.org/wiki/Privacy_policy","/wiki/Wikipedia:About","/wiki/Wikipedia:General_disclaimer","http://en.m.wikipedia.org/wiki/Uridine_monophosphate","//wikimediafoundation.org/","//bits.wikimedia.org/images/wikimedia-button.png","//www.mediawiki.org/","//bits.wikimedia.org/static-1.21wmf11/skins/common/images/poweredby_mediawiki_88x31.png","//bits.wikimedia.org/en.wikipedia.org/load.php?debug=false&lang=en&modules=skins.vector&only=scripts&skin=vector&*","/w/index.php?title=MediaWiki:Gadget-ReferenceTooltips.js&action=raw&ctype=text/javascript&508635914","//bits.wikimedia.org/en.wikipedia.org/load.php?debug=false&lang=en&modules=site&only=scripts&skin=vector&*"],"instances":[],"pdf":[],"categories":["Nucleotides","Pyrimidinediones"],"headings":["Biosynthesis","Effects on animal intelligence","Uridine Monophosphate in Foods","References","See also"],"image":["//upload.wikimedia.org/wikipedia/commons/thumb/9/90/Uridinmonophosphat_protoniert.svg/200px-Uridinmonophosphat_protoniert.svg.png","//upload.wikimedia.org/wikipedia/en/thumb/f/fb/Yes_check.svg/7px-Yes_check.svg.png","//upload.wikimedia.org/wikipedia/commons/thumb/a/a2/X_mark.svg/7px-X_mark.svg.png","//upload.wikimedia.org/wikipedia/commons/thumb/a/a2/X_mark.svg/7px-X_mark.svg.png","//upload.wikimedia.org/wikipedia/commons/thumb/a/a2/X_mark.svg/7px-X_mark.svg.png","//upload.wikimedia.org/wikipedia/commons/thumb/a/a2/X_mark.svg/14px-X_mark.svg.png","//upload.wikimedia.org/wikipedia/en/thumb/f/fb/Yes_check.svg/10px-Yes_check.svg.png","//upload.wikimedia.org/wikipedia/commons/thumb/a/a2/X_mark.svg/10px-X_mark.svg.png","//upload.wikimedia.org/wikipedia/commons/thumb/f/ff/AlphaHelixSection.svg/40px-AlphaHelixSection.svg.png","//bits.wikimedia.org/static-1.21wmf11/skins/vector/images/search-ltr.png?303-4","//bits.wikimedia.org/images/wikimedia-button.png","//bits.wikimedia.org/static-1.21wmf11/skins/common/images/poweredby_mediawiki_88x31.png"],"tags":[],"members":[],"related":["Nucleotide","Monomer","RNA","Ester","Phosphoric_acid","Nucleoside","Uridine","Phosphate","Functional_group","Pentose","Sugar","Ribose","Nucleobase","Uracil","Ribonucleoside_monophosphate","Substituent","Orotidine_5'-monophosphate","Enzyme","Orotidylate_decarboxylase","UMP_synthase","Orotic_aciduria","Gerbil","Docosahexaenoic_acid","Uridine","Uridine","RNA","RNA","Uridine","Nucleoside","Nucleotide","DNA","RNA","Oligonucleotide","Pyrimidine_biosynthesis","Ribonucleoside_monophosphate"]}