{"cursor":"25708","size":15,"audio":[],"currentlang":"en","article":"{{Ionbox\n| Watchedfields = changed verifiedrevid = 417094923 ImageFile1 = Hydroxonium-\n| cation.svg ImageFile1_Ref = ImageSize1 = 170 ImageName2 = Stereo, skeletal\n| formula of hydronium with a lone pair of electrons shown ImageFileL1 = Hydronium-3D-\n| balls.png ImageFileL1_Ref = ImageSizeL1 = 121 ImageNameL1 = Ball and stick\n| model of hydronium ImageFileR1 = Hydronium-3D-vdW.png ImageFileR1_Ref =\n| ImageSizeR1 = 121 ImageNameR1 = Spacefill model of hydronium IUPACName =\n| Hydronium ion SystematicName = Oxidanium (substitutive)\nTrihydridooxygen(1+) (additive)\n| Section1 = {{Chembox Identifiers CASNo = 13968-08-6 PubChem = 123332\n| PubChem_Ref = ChemSpiderID = 109935 ChemSpiderID_Ref = MeSHName =\n| Hydronium+ion ChEBI = 29412 Gmelin = 141 SMILES = [OH3+] StdInChI =\n| 1S/H2O/h1H2/p+1 StdInChI_Ref = StdInChIKey = XLYOFNOQVPJJNP-UHFFFAOYSA-O\n| StdInChIKey_Ref =\n}}\n| Section2 = {{Chembox Properties Formula = MolarMass = 19.0232 g mol -\n| 1 ExactMass = 19.018389718 g mol -1 pKa = -1.74 Taft, R.W., Wolf, J.F., Beauchamp, J.L., Scorrano, G.,\n| Arnett, E.M., J. Am. Chem. Soc., '1978', 100, 1240.\n}}\n| Section3 = {{Chembox Thermochemistry Entropy = 192.25 J K -1\n| mol -1\n}} }}\n\nThe 'hydronium' cation is the positively charged polyatomic ion with the\nchemical formula . Hydronium, a type of oxonium ion, is formed by the\nprotonation of water (). This cation is often used to represent the nature of\nthe proton in aqueous solution, where the proton is highly solvated (bound to a\nsolvent). The reality is far more complicated, and a proton is bound to several\nmolecules of water, such that other descriptions such as\nH 5O 2+ , H 7O 3+\nand H 9O 4+ are increasingly accurate\ndescriptions of the environment of a proton in water. The ion\nhas been detected in the gas phase.\n","linknr":347,"url":"Hydronium","recorded":1374763885,"links":["/w/index.php?title=Hydronium&action=edit","/w/index.php?title=Hydronium&action=edit","//bits.wikimedia.org/favicon/wikipedia.ico","/w/opensearch_desc.php","//en.wikipedia.org/w/api.php?action=rsd","//creativecommons.org/licenses/by-sa/3.0/","/w/index.php?title=Special:RecentChanges&feed=atom","//bits.wikimedia.org/en.wikipedia.org/load.php?debug=false&lang=en&modules=ext.gadget.DRN-wizard%2CReferenceTooltips%2Ccharinsert%2Cteahouse%7Cext.rtlcite%2Cwikihiero%7Cext.uls.nojs%7Cmediawiki.legacy.commonPrint%2Cshared%7Cmw.PopUpMediaTransform%7Cskins.vector&only=styles&skin=vector&*","//bits.wikimedia.org/en.wikipedia.org/load.php?debug=false&lang=en&modules=site&only=styles&skin=vector&*","//bits.wikimedia.org/en.wikipedia.org/load.php?debug=false&lang=en&modules=startup&only=scripts&skin=vector&*","//bits.wikimedia.org/geoiplookup","//meta.wikimedia.org","#mw-navigation","#p-search","/wiki/File:Hydroxonium-cation.svg","//upload.wikimedia.org/wikipedia/commons/thumb/8/80/Hydroxonium-cation.svg/170px-Hydroxonium-cation.svg.png","/wiki/File:Hydronium-3D-balls.png","//upload.wikimedia.org/wikipedia/commons/thumb/e/ec/Hydronium-3D-balls.png/121px-Hydronium-3D-balls.png","/wiki/File:Hydronium-3D-vdW.png","//upload.wikimedia.org/wikipedia/commons/thumb/9/96/Hydronium-3D-vdW.png/121px-Hydronium-3D-vdW.png","/wiki/International_Union_of_Pure_and_Applied_Chemistry_nomenclature","/wiki/Wikipedia:Citation_needed","/wiki/IUPAC_nomenclature","#cite_note-oxonium_.28CHEBI:29412.29-1","#cite_note-oxonium_.28CHEBI:29412.29-1","/wiki/CAS_registry_number","http://www.commonchemistry.org/ChemicalDetail.aspx?ref=13968-08-6","/wiki/PubChem","http://pubchem.ncbi.nlm.nih.gov/summary/summary.cgi?cid=123332","/wiki/ChemSpider","http://www.chemspider.com/109935","//upload.wikimedia.org/wikipedia/en/thumb/f/fb/Yes_check.svg/7px-Yes_check.svg.png","/wiki/Medical_Subject_Headings","http://www.nlm.nih.gov/cgi/mesh/2007/MB_cgi?mode=&term=Hydronium+ion","/wiki/ChEBI","https://www.ebi.ac.uk/chebi/searchId.do?chebiId=29412","/wiki/Gmelin_database","/wiki/Jmol","http://chemapps.stolaf.edu/jmol/jmol.php?model=%5BOH3%2B%5D","/wiki/Simplified_molecular-input_line-entry_system","/wiki/International_Chemical_Identifier","//upload.wikimedia.org/wikipedia/en/thumb/f/fb/Yes_check.svg/7px-Yes_check.svg.png","//upload.wikimedia.org/wikipedia/en/thumb/f/fb/Yes_check.svg/7px-Yes_check.svg.png","/wiki/Chemical_formula","/wiki/Molar_mass","/wiki/Acid_dissociation_constant","#cite_note-Taft.2C_R.W._1240-2","/wiki/Standard_molar_entropy","//upload.wikimedia.org/wikipedia/en/thumb/f/fb/Yes_check.svg/14px-Yes_check.svg.png","//en.wikipedia.org/w/index.php?title=Special:ComparePages&rev1=417094923&page2=Hydronium","/wiki/Wikipedia:WikiProject_Chemicals/Chembox_validation","//upload.wikimedia.org/wikipedia/en/thumb/f/fb/Yes_check.svg/10px-Yes_check.svg.png","//upload.wikimedia.org/wikipedia/commons/thumb/a/a2/X_mark.svg/10px-X_mark.svg.png","/wiki/Standard_state","/wiki/Wikipedia:Chemical_infobox#References","/wiki/Cation","/wiki/Electric_charge","/wiki/Polyatomic_ion","/wiki/Chemical_formula","/wiki/Oxonium_ion","/wiki/Protonation","/wiki/Properties_of_water","/wiki/Proton","/wiki/Solvation","#cite_note-Greenwd-3","#cite_note-4","#Determination_of_pH","#Nomenclature","#Structure","#Acids_and_acidity","#Solvation","#Solid_hydronium_salts","#Interstellar_H3O.2B","#Motivation_for_study","#Interstellar_chemistry","#Astronomical_detections","#See_also","#References","#External_links","/w/index.php?title=Hydronium&action=edit&section=1","/wiki/Hydroxide","/wiki/PH","/wiki/Self-ionization_of_water","//upload.wikimedia.org/wikipedia/commons/thumb/9/96/Equilibrium.svg/15px-Equilibrium.svg.png","/wiki/Properties_of_water","/wiki/Standard_conditions","/wiki/Concentration","/w/index.php?title=Hydronium&action=edit&section=2","/wiki/IUPAC_nomenclature_of_organic_chemistry#Parent_hydride_cations","#cite_note-5","/wiki/IUPAC","/wiki/Oxonium_ion","/wiki/Hydroxyl_group","/w/index.php?title=Hydronium&action=edit&section=3","/wiki/Isoelectronic","/wiki/Ammonia","#cite_note-6","/wiki/Point_groups_in_three_dimensions","/w/index.php?title=Hydronium&action=edit&section=4","/wiki/Water_(molecule)","/wiki/Hydrogen_ion","/wiki/IUPAC_nomenclature_of_organic_chemistry#Hydron","/wiki/Solvation","/wiki/Acid","/wiki/Hydroxide","/wiki/Self-ionization_of_water","/wiki/PH","/wiki/PKa","#cite_note-Taft.2C_R.W._1240-2","/wiki/Leveling_effect","/wiki/Strong_acid","/wiki/Hydrogen_ion","#cite_note-7","/w/index.php?title=Hydronium&action=edit&section=5","/wiki/Solvation","/wiki/Freezing-point_depression","#cite_note-8","/wiki/Dodecahedron","#cite_note-9","/wiki/Ab_initio_quantum_chemistry_methods","#cite_note-10","/wiki/File:Zundel-cation.JPG","//upload.wikimedia.org/wikipedia/commons/thumb/0/0f/Zundel-cation.JPG/220px-Zundel-cation.JPG","/wiki/File:Zundel-cation.JPG","//bits.wikimedia.org/static-1.22wmf10/skins/common/images/magnify-clip.png","/wiki/Hydrogen_bond","#cite_note-11","/wiki/Symmetric_hydrogen_bond","#cite_note-12","#cite_note-13","/wiki/Superacid","/wiki/Nuclear_magnetic_resonance","#cite_note-14","/wiki/Enthalpy","/wiki/Thermodynamic_free_energy","#cite_note-15","/wiki/Molecular_dynamics","/wiki/Ligand","#cite_note-16","/wiki/Infrared_spectroscopy","/w/index.php?title=Hydronium&action=edit&section=6","/wiki/Strong_acids","/wiki/Ionization_constant","/wiki/Hydrochloric_acid","/wiki/Perchloric_acid","/wiki/Carborane_superacid","#cite_note-17","/wiki/X-ray_crystallography","/wiki/Point_group","/wiki/Picometer","/wiki/Benzene","/wiki/Pi_bond","#cite_note-Greenwd-3","/w/index.php?title=Hydronium&action=edit&section=7","/w/index.php?title=Hydronium&action=edit&section=8","#cite_note-faure2003rce-18","#cite_note-hollis1986ilc-19","#cite_note-rauer1997ica-20","#cite_note-vejbychristensen1997cbr-21","/wiki/Dissociative_recombination","#cite_note-neau2000drd-22","#cite_note-neufeld1995tbd-23","#cite_note-wootten1986sih-24","/wiki/Semiheavy_water","/wiki/Heavy_water","#cite_note-25","#cite_note-wootten1986sih-24","#cite_note-wootten1986sih-24","#cite_note-neau2000drd-22","#cite_note-herbst1977iou-26","#cite_note-phillips1992iha-27","/w/index.php?title=Hydronium&action=edit&section=9","#cite_note-udfa-28","/wiki/Hale-Bopp","#cite_note-rauer1997ica-20","/wiki/Dissociative_recombination","/wiki/File:PrimaryH3OPathways.png","//upload.wikimedia.org/wikipedia/commons/thumb/e/e4/PrimaryH3OPathways.png/220px-PrimaryH3OPathways.png","/wiki/File:PrimaryH3OPathways.png","//bits.wikimedia.org/static-1.22wmf10/skins/common/images/magnify-clip.png","/w/index.php?title=Hydronium&action=edit&section=10","#cite_note-herbst1973fad-29","#cite_note-schwarz1977gpi-30","#cite_note-hollis1986ilc-19","#cite_note-wootten1986sih-24","#cite_note-wootten1991myx-31","#cite_note-phillips1992iha-27","#cite_note-timmermann1996pdm-32","#cite_note-goicoechea2001fid-33","/w/index.php?title=Hydronium&action=edit&section=11","/wiki/Hydron_(chemistry)","/wiki/Hydride","/wiki/Hydrogen_anion","/wiki/Proton_affinity","/w/index.php?title=Hydronium&action=edit&section=12","#cite_ref-oxonium_.28CHEBI:29412.29_1-0","#cite_ref-oxonium_.28CHEBI:29412.29_1-1","https://www.ebi.ac.uk/chebi/searchId.do?chebiId=29412","#cite_ref-Taft.2C_R.W._1240_2-0","#cite_ref-Taft.2C_R.W._1240_2-1","#cite_ref-Greenwd_3-0","#cite_ref-Greenwd_3-1","/wiki/Norman_Greenwood","/wiki/Butterworth%E2%80%93Heinemann","/wiki/International_Standard_Book_Number","/wiki/Special:BookSources/0080379419","#cite_ref-4","/wiki/Bibcode","http://adsabs.harvard.edu/abs/1983PhRvL..51..554B","/wiki/Digital_object_identifier","http://dx.doi.org/10.1103%2FPhysRevLett.51.554","#cite_ref-5","http://goldbook.iupac.org/O04378.html","#cite_ref-6","/wiki/Bibcode","http://adsabs.harvard.edu/abs/1999JMoSp.196..120T","/wiki/Digital_object_identifier","http://dx.doi.org/10.1006%2Fjmsp.1999.7844","/wiki/PubMed_Identifier","//www.ncbi.nlm.nih.gov/pubmed/10361062","#cite_ref-7","#cite_ref-8","#cite_ref-9","#cite_ref-10","#cite_ref-11","#cite_ref-12","#cite_ref-13","#cite_ref-14","#cite_ref-15","/wiki/J._Phys._Chem._A","http://pubs.acs.org/cgi-bin/abstract.cgi/jpcafh/2007/111/i12/abs/jp068960g.html","#cite_ref-16","/wiki/J._Am._Chem._Soc.","http://pubs.acs.org/doi/abs/10.1021/ja9101826","#cite_ref-17","/wiki/J._Am._Chem._Soc.","http://dx.doi.org/10.1021/ja0551335","#cite_ref-faure2003rce_18-0","#cite_ref-hollis1986ilc_19-0","#cite_ref-hollis1986ilc_19-1","#cite_ref-rauer1997ica_20-0","#cite_ref-rauer1997ica_20-1","#cite_ref-vejbychristensen1997cbr_21-0","#cite_ref-neau2000drd_22-0","#cite_ref-neau2000drd_22-1","#cite_ref-neufeld1995tbd_23-0","#cite_ref-wootten1986sih_24-0","#cite_ref-wootten1986sih_24-1","#cite_ref-wootten1986sih_24-2","#cite_ref-wootten1986sih_24-3","#cite_ref-25","/wiki/International_Union_of_Pure_and_Applied_Chemistry","/wiki/Compendium_of_Chemical_Terminology","http://goldbook.iupac.org/H02758.html","#cite_ref-herbst1977iou_26-0","#cite_ref-phillips1992iha_27-0","#cite_ref-phillips1992iha_27-1","#cite_ref-udfa_28-0","http://www.udfa.net","#cite_ref-herbst1973fad_29-0","#cite_ref-schwarz1977gpi_30-0","#cite_ref-wootten1991myx_31-0","#cite_ref-timmermann1996pdm_32-0","#cite_ref-goicoechea2001fid_33-0","/w/index.php?title=Hydronium&action=edit&section=13","http://www.chemspider.com/Chemical-Structure.109935.html","http://jcp.aip.org/resource/1/jcpsa6/v53/i11/p4295_s1?isAuthorized=no","//en.wikipedia.org/w/index.php?title=Special:CentralAutoLogin/start&type=1x1&from=enwiki","http://en.wikipedia.org/w/index.php?title=Hydronium&oldid=564193488","/wiki/Help:Categories","/wiki/Category:Acids","/wiki/Category:Cations","/wiki/Category:Water_chemistry","/wiki/Category:All_articles_with_unsourced_statements","/wiki/Category:Articles_with_unsourced_statements_from_July_2011","/wiki/Category:Chemboxes_which_contain_changes_to_watched_fields","/w/index.php?title=Special:UserLogin&returnto=Hydronium&type=signup","/w/index.php?title=Special:UserLogin&returnto=Hydronium","/wiki/Hydronium","/wiki/Talk:Hydronium","#","/wiki/Hydronium","/w/index.php?title=Hydronium&action=edit","/w/index.php?title=Hydronium&action=history","#","/w/index.php","//bits.wikimedia.org/static-1.22wmf10/skins/vector/images/search-ltr.png?303-4","/wiki/Main_Page","/wiki/Main_Page","/wiki/Portal:Contents","/wiki/Portal:Featured_content","/wiki/Portal:Current_events","/wiki/Special:Random","//donate.wikimedia.org/wiki/Special:FundraiserRedirector?utm_source=donate&utm_medium=sidebar&utm_campaign=C13_en.wikipedia.org&uselang=en","/wiki/Help:Contents","/wiki/Wikipedia:About","/wiki/Wikipedia:Community_portal","/wiki/Special:RecentChanges","//en.wikipedia.org/wiki/Wikipedia:Contact_us","/wiki/Special:WhatLinksHere/Hydronium","/wiki/Special:RecentChangesLinked/Hydronium","/wiki/Wikipedia:File_Upload_Wizard","/wiki/Special:SpecialPages","/w/index.php?title=Hydronium&oldid=564193488","/w/index.php?title=Hydronium&action=info","//www.wikidata.org/wiki/Q849881","/w/index.php?title=Special:Cite&page=Hydronium&id=564193488","/w/index.php?title=Special:Book&bookcmd=book_creator&referer=Hydronium","/w/index.php?title=Special:Book&bookcmd=render_article&arttitle=Hydronium&oldid=564193488&writer=rl","/w/index.php?title=Hydronium&printable=yes","//ar.wikipedia.org/wiki/%D9%87%D9%8A%D8%AF%D8%B1%D9%88%D9%86%D9%8A%D9%88%D9%85","//bs.wikipedia.org/wiki/Hidronijum","//ca.wikipedia.org/wiki/I%C3%B3_hidroni","//cs.wikipedia.org/wiki/Hydronium","//da.wikipedia.org/wiki/Hydronium","//et.wikipedia.org/wiki/H%C3%BCdrooniumioon","//el.wikipedia.org/wiki/%CE%A5%CE%B4%CF%81%CE%BF%CE%BE%CF%8E%CE%BD%CE%B9%CE%BF","//es.wikipedia.org/wiki/Ion_hidronio","//fr.wikipedia.org/wiki/Ion_hydronium","//ko.wikipedia.org/wiki/%ED%95%98%EC%9D%B4%EB%93%9C%EB%A1%9C%EB%8A%84_%EC%9D%B4%EC%98%A8","//it.wikipedia.org/wiki/Idronio","//he.wikipedia.org/wiki/%D7%94%D7%99%D7%93%D7%A8%D7%95%D7%A0%D7%99%D7%95%D7%9D","//mk.wikipedia.org/wiki/%D0%A5%D0%B8%D0%B4%D1%80%D0%BE%D0%BD%D0%B8%D1%83%D0%BC","//nl.wikipedia.org/wiki/Hydroxonium","//ja.wikipedia.org/wiki/%E3%83%92%E3%83%89%E3%83%AD%E3%83%8B%E3%82%A6%E3%83%A0","//pl.wikipedia.org/wiki/Jon_hydroniowy","//pt.wikipedia.org/wiki/Hidr%C3%B4nio","//ru.wikipedia.org/wiki/%D0%93%D0%B8%D0%B4%D1%80%D0%BE%D0%BA%D1%81%D0%BE%D0%BD%D0%B8%D0%B9","//sr.wikipedia.org/wiki/Hidronijum","//tr.wikipedia.org/wiki/Hidronyum","//zh.wikipedia.org/wiki/%E6%B0%B4%E5%90%88%E6%B0%A2%E7%A6%BB%E5%AD%90","#","//www.wikidata.org/wiki/Q849881#sitelinks-wikipedia","//en.wikipedia.org/wiki/Wikipedia:Text_of_Creative_Commons_Attribution-ShareAlike_3.0_Unported_License","//creativecommons.org/licenses/by-sa/3.0/","//wikimediafoundation.org/wiki/Terms_of_Use","//wikimediafoundation.org/wiki/Privacy_policy","//www.wikimediafoundation.org/","//wikimediafoundation.org/wiki/Privacy_policy","/wiki/Wikipedia:About","/wiki/Wikipedia:General_disclaimer","//en.wikipedia.org/wiki/Wikipedia:Contact_us","//en.m.wikipedia.org/wiki/Hydronium","//wikimediafoundation.org/","//bits.wikimedia.org/images/wikimedia-button.png","//www.mediawiki.org/","//bits.wikimedia.org/static-1.22wmf10/skins/common/images/poweredby_mediawiki_88x31.png","//bits.wikimedia.org/en.wikipedia.org/load.php?debug=false&lang=en&modules=site&only=scripts&skin=vector&*"],"instances":["chemistry","molecule"],"pdf":[],"categories":["Acids","Cations","Water chemistry"],"headings":["Determination of pH","Nomenclature","Structure","Acids and acidity","Solvation","Solid hydronium salts","Interstellar {{chem|H|3|O|+}}","See also","References","External links"],"image":["//upload.wikimedia.org/wikipedia/commons/thumb/8/80/Hydroxonium-cation.svg/170px-Hydroxonium-cation.svg.png","//upload.wikimedia.org/wikipedia/commons/thumb/e/ec/Hydronium-3D-balls.png/121px-Hydronium-3D-balls.png","//upload.wikimedia.org/wikipedia/commons/thumb/9/96/Hydronium-3D-vdW.png/121px-Hydronium-3D-vdW.png","//upload.wikimedia.org/wikipedia/en/thumb/f/fb/Yes_check.svg/7px-Yes_check.svg.png","//upload.wikimedia.org/wikipedia/en/thumb/f/fb/Yes_check.svg/7px-Yes_check.svg.png","//upload.wikimedia.org/wikipedia/en/thumb/f/fb/Yes_check.svg/7px-Yes_check.svg.png","//upload.wikimedia.org/wikipedia/en/thumb/f/fb/Yes_check.svg/14px-Yes_check.svg.png","//upload.wikimedia.org/wikipedia/en/thumb/f/fb/Yes_check.svg/10px-Yes_check.svg.png","//upload.wikimedia.org/wikipedia/commons/thumb/a/a2/X_mark.svg/10px-X_mark.svg.png","//upload.wikimedia.org/wikipedia/commons/thumb/9/96/Equilibrium.svg/15px-Equilibrium.svg.png","//upload.wikimedia.org/wikipedia/commons/thumb/0/0f/Zundel-cation.JPG/220px-Zundel-cation.JPG","//bits.wikimedia.org/static-1.22wmf10/skins/common/images/magnify-clip.png","//upload.wikimedia.org/wikipedia/commons/thumb/e/e4/PrimaryH3OPathways.png/220px-PrimaryH3OPathways.png","//bits.wikimedia.org/static-1.22wmf10/skins/common/images/magnify-clip.png","//en.wikipedia.org/w/index.php?title=Special:CentralAutoLogin/start&type=1x1&from=enwiki","//bits.wikimedia.org/static-1.22wmf10/skins/vector/images/search-ltr.png?303-4","//bits.wikimedia.org/images/wikimedia-button.png","//bits.wikimedia.org/static-1.22wmf10/skins/common/images/poweredby_mediawiki_88x31.png"],"tags":[["water","molecule"],["hydron","chemistry"]],"members":["hydron","water"],"related":["Cation","Electric_charge","Polyatomic_ion","Chemical_formula","Oxonium_ion","Protonation","Properties_of_water","Proton","Solvation","Hydroxide","PH","Self-ionization_of_water","Properties_of_water","Standard_conditions","Concentration","IUPAC","Oxonium_ion","Hydroxyl_group","Isoelectronic","Ammonia","Point_groups_in_three_dimensions","Water_(molecule)","Hydrogen_ion","Solvation","Acid","Hydroxide","Self-ionization_of_water","PH","PKa","Leveling_effect","Strong_acid","Hydrogen_ion","Solvation","Freezing-point_depression","Dodecahedron","Ab_initio_quantum_chemistry_methods","Hydrogen_bond","Symmetric_hydrogen_bond","Superacid","Nuclear_magnetic_resonance","Enthalpy","Thermodynamic_free_energy","J._Phys._Chem._A","Molecular_dynamics","Ligand","J._Am._Chem._Soc.","Infrared_spectroscopy","Strong_acids","Ionization_constant","Hydrochloric_acid","Perchloric_acid","Carborane_superacid","J._Am._Chem._Soc.","X-ray_crystallography","Point_group","Picometer","Benzene","Pi_bond","Dissociative_recombination","Semiheavy_water","Heavy_water","Hale-Bopp","Dissociative_recombination","Hydron_(chemistry)","Hydride","Hydrogen_anion","Proton_affinity"]}