{"cursor":"12071","size":15,"audio":[],"currentlang":"en","article":"{{Chembox\n| Watchedfields = changed verifiedrevid = 464365466 ImageFileL1 = Butane-2D-\n| Skeletal.svg ImageFileL1_Ref = ImageNameL1 = Skeletal formula of butane\n| ImageFileR1 = ButaneFull.png ImageFileR1_Ref = ImageNameR1 = Skeletal formula\n| of butane with all carbon and hydrogen atoms shown ImageFileL2 = Butane-3D-\n| balls.png ImageFileL2_Ref = ImageNameL2 = Ball and stick model of butane\n| ImageFileR2 = Butane-3D-space-filling.png ImageFileR2_Ref = ImageNameR2 =\n| Spacefill model of butane IUPACName = Butane Section1 = {{Chembox\n| Identifiers CASNo = 106-97-8 CASNo_Ref = PubChem = 7843 PubChem_Ref =\n| ChemSpiderID = 7555 ChemSpiderID_Ref = UNII = 6LV4FOR43R UNII_Ref = EINECS =\n| 203-448-7 UNNumber = 1011 KEGG = D03186 KEGG_Ref = MeSHName = butane ChEBI =\n| 37808 ChEBI_Ref = ChEMBL = 134702 ChEMBL_Ref = RTECS = EJ4200000 Beilstein =\n| 969129 Gmelin = 1148 SMILES = CCCC StdInChI = 1S/C4H10/c1-3-4-2/h3-4H2,1-2H3\n| StdInChI_Ref = StdInChIKey = IJDNQMDRQITEOD-UHFFFAOYSA-N StdInChIKey_Ref =\n}}\n| Section2 = {{Chembox Properties C = 4 H = 10 Appearance = Colorless gas Odor =\n| Petrol-like Density = 2.48 g dm −3 (at 15 °C) MeltingPtKL = 133\n| MeltingPtKH = 139 BoilingPtKL = 272 BoilingPtKH = 274 Solubility = 61 mg\n| L −1 (at 20 °C) LogP = 2.745 VaporPressure = ~25 PSI (at 50 °F)\n|  HenryConstant = 11 nmol Pa −1 kg −1\n}}\n| Section3 = {{Chembox Thermochemistry DeltaHf = −126.3–−124.9 kJ\n| mol −1 DeltaHc = −2.8781–−2.8769 MJ mol −1 HeatCapacity =\n| 98.49 J K −1 mol −1\n}}\n| Section4 = {{Chembox Hazards Reference =  GHSPictograms =\n| GHSSignalWord = 'DANGER' HPhrases = PPhrases = EUIndex = 601-004-00-0 EUClass\n| = RPhrases = SPhrases = NFPA-H = 1 NFPA-F = 4 NFPA-R = 0 FlashPt =\n| Autoignition = ExploLimits = 1.8–8.4%\n}}\n| Section5 = {{Chembox Related Function = alkanes OtherFunctn = OtherCpds =\n| Perfluorobutane\n}} }}\n\n'Butane' is an organic compound with the formula C 4H 10\nthat is an alkane with four carbon atoms. Butane is a gas at room temperature\nand atmospheric pressure. The term may refer to either of two structural\nisomers, 'n-butane' or '[[isobutane]]' (or \"methylpropane\"), or to a mixture of\nthese isomers. In the IUPAC nomenclature, however, \"butane\" refers only to the\nn-butane isomer (which is the isomer with the unbranched structure). Butanes are\nhighly flammable, colorless, easily liquefied gases. The name butane comes from\nthe roots but- (from butyric acid) and -ane.\n","linknr":442,"url":"Butane","recorded":1374544905,"links":["/w/index.php?title=Butane&action=edit","/w/index.php?title=Butane&action=edit","//bits.wikimedia.org/favicon/wikipedia.ico","/w/opensearch_desc.php","//en.wikipedia.org/w/api.php?action=rsd","//creativecommons.org/licenses/by-sa/3.0/","/w/index.php?title=Special:RecentChanges&feed=atom","//bits.wikimedia.org/en.wikipedia.org/load.php?debug=false&lang=en&modules=ext.gadget.DRN-wizard%2CReferenceTooltips%2Ccharinsert%2Cteahouse%7Cext.rtlcite%2Cwikihiero%7Cext.uls.nojs%7Cmediawiki.legacy.commonPrint%2Cshared%7Cmw.PopUpMediaTransform%7Cskins.vector&only=styles&skin=vector&*","//bits.wikimedia.org/en.wikipedia.org/load.php?debug=false&lang=en&modules=site&only=styles&skin=vector&*","//bits.wikimedia.org/en.wikipedia.org/load.php?debug=false&lang=en&modules=startup&only=scripts&skin=vector&*","//bits.wikimedia.org/geoiplookup","//meta.wikimedia.org","#mw-navigation","#p-search","/wiki/File:Butane_simple.svg","//upload.wikimedia.org/wikipedia/commons/thumb/a/ab/Butane_simple.svg/100px-Butane_simple.svg.png","/wiki/File:ButaneFull.png","//upload.wikimedia.org/wikipedia/commons/thumb/0/09/ButaneFull.png/100px-ButaneFull.png","/wiki/File:Butane-3D-balls.png","//upload.wikimedia.org/wikipedia/commons/thumb/7/76/Butane-3D-balls.png/100px-Butane-3D-balls.png","/wiki/File:Butane-3D-space-filling.png","//upload.wikimedia.org/wikipedia/commons/thumb/9/95/Butane-3D-space-filling.png/100px-Butane-3D-space-filling.png","/wiki/International_Union_of_Pure_and_Applied_Chemistry_nomenclature","#cite_note-1","/wiki/CAS_registry_number","http://www.commonchemistry.org/ChemicalDetail.aspx?ref=106-97-8","//upload.wikimedia.org/wikipedia/en/thumb/f/fb/Yes_check.svg/7px-Yes_check.svg.png","/wiki/PubChem","http://pubchem.ncbi.nlm.nih.gov/summary/summary.cgi?cid=7843","/wiki/ChemSpider","http://www.chemspider.com/7555","//upload.wikimedia.org/wikipedia/en/thumb/f/fb/Yes_check.svg/7px-Yes_check.svg.png","/wiki/Unique_Ingredient_Identifier","http://fdasis.nlm.nih.gov/srs/srsdirect.jsp?regno=6LV4FOR43R","//upload.wikimedia.org/wikipedia/en/thumb/f/fb/Yes_check.svg/7px-Yes_check.svg.png","/wiki/EC_number_(chemistry)","http://esis.jrc.ec.europa.eu/lib/einecs_IS_reponse.php?genre=ECNO&entree=203-448-7","/wiki/UN_number","/wiki/KEGG","http://www.kegg.jp/entry/D03186","//upload.wikimedia.org/wikipedia/en/thumb/f/fb/Yes_check.svg/7px-Yes_check.svg.png","/wiki/Medical_Subject_Headings","http://www.nlm.nih.gov/cgi/mesh/2007/MB_cgi?mode=&term=butane","/wiki/ChEBI","https://www.ebi.ac.uk/chebi/searchId.do?chebiId=37808","//upload.wikimedia.org/wikipedia/en/thumb/f/fb/Yes_check.svg/7px-Yes_check.svg.png","/wiki/ChEMBL","https://www.ebi.ac.uk/chembldb/index.php/compound/inspect/CHEMBL134702","//upload.wikimedia.org/wikipedia/en/thumb/f/fb/Yes_check.svg/7px-Yes_check.svg.png","/wiki/RTECS","/wiki/Beilstein_database","/wiki/Gmelin_database","/wiki/Jmol","http://chemapps.stolaf.edu/jmol/jmol.php?model=CCCC","/wiki/Simplified_molecular-input_line-entry_system","/wiki/International_Chemical_Identifier","//upload.wikimedia.org/wikipedia/en/thumb/f/fb/Yes_check.svg/7px-Yes_check.svg.png","//upload.wikimedia.org/wikipedia/en/thumb/f/fb/Yes_check.svg/7px-Yes_check.svg.png","/wiki/Molecular_formula","/wiki/Molar_mass","/wiki/Odor","/wiki/Density","/wiki/Melting_point","/wiki/Boiling_point","/wiki/Solubility","/wiki/Water","/wiki/Partition_coefficient","/wiki/Vapor_pressure","#cite_note-2","/wiki/Henry%27s_law","/wiki/Standard_enthalpy_change_of_formation","/wiki/Standard_enthalpy_change_of_combustion","/wiki/Specific_heat_capacity","#cite_note-3","/wiki/Material_safety_data_sheet","/wiki/Butane_(data_page)#Material_Safety_Data_Sheet","/wiki/GHS_hazard_pictograms","/wiki/File:GHS-pictogram-flamme.svg","//upload.wikimedia.org/wikipedia/commons/thumb/6/6d/GHS-pictogram-flamme.svg/50px-GHS-pictogram-flamme.svg.png","/wiki/Globally_Harmonized_System_of_Classification_and_Labelling_of_Chemicals","/wiki/GHS_hazard_statement","/wiki/GHS_precautionary_statements","/wiki/Dangerous_Substances_Directive_(67/548/EEC)","/wiki/File:Hazard_F.svg","//upload.wikimedia.org/wikipedia/commons/thumb/0/06/Hazard_F.svg/40px-Hazard_F.svg.png","/wiki/List_of_R-phrases","/wiki/R12:_Extremely_flammable","/wiki/List_of_S-phrases","/wiki/(S2):_Keep_out_of_the_reach_of_children","/wiki/S16:_Keep_away_from_sources_of_ignition_-_No_smoking","/wiki/NFPA_704","/wiki/File:NFPA_704.svg","//upload.wikimedia.org/wikipedia/commons/thumb/6/6f/NFPA_704.svg/75px-NFPA_704.svg.png","/wiki/Flash_point","/wiki/Autoignition_temperature","/wiki/Explosive_limit","/wiki/Propane","/wiki/Isobutane","/wiki/Pentane","/wiki/Perfluorobutane","/wiki/Butane_(data_page)","/wiki/Butane_(data_page)#Structure_and_properties","/wiki/Refractive_index","/wiki/Dielectric_constant","/wiki/Butane_(data_page)#Thermodynamic_properties","/wiki/Butane_(data_page)#Spectral_data","/wiki/UV/VIS_spectroscopy","/wiki/Infrared_spectroscopy","/wiki/NMR_spectroscopy","/wiki/Mass_spectrometry","//upload.wikimedia.org/wikipedia/en/thumb/f/fb/Yes_check.svg/14px-Yes_check.svg.png","//en.wikipedia.org/w/index.php?title=Special:ComparePages&rev1=464365466&page2=Butane","/wiki/Wikipedia:WikiProject_Chemicals/Chembox_validation","//upload.wikimedia.org/wikipedia/en/thumb/f/fb/Yes_check.svg/10px-Yes_check.svg.png","//upload.wikimedia.org/wikipedia/commons/thumb/a/a2/X_mark.svg/10px-X_mark.svg.png","/wiki/Standard_state","/wiki/Wikipedia:Chemical_infobox#References","/wiki/Organic_compound","/wiki/Alkane","/wiki/Carbon","/wiki/Atom","/wiki/Structural_isomers","/wiki/Isobutane","/wiki/Isomer","/wiki/IUPAC","/wiki/Liquefy","/wiki/Gas","/wiki/IUPAC_nomenclature_of_organic_chemistry#Alkanes","/wiki/Butyric_acid","/wiki/Alkanes","#Isomers","#Reactions","#Uses","#Effects_and_health_issues","#See_also","#References","#External_links","/w/index.php?title=Butane&action=edit&section=1","/wiki/Isobutane","/wiki/File:Butan_Lewis.svg","//upload.wikimedia.org/wikipedia/commons/thumb/c/cb/Butan_Lewis.svg/150px-Butan_Lewis.svg.png","/wiki/File:Isobutane.png","//upload.wikimedia.org/wikipedia/commons/thumb/9/98/Isobutane.png/120px-Isobutane.png","/wiki/File:Butane_simple.svg","//upload.wikimedia.org/wikipedia/commons/thumb/a/ab/Butane_simple.svg/120px-Butane_simple.svg.png","/wiki/File:I-Butane-2D-Skeletal.svg","//upload.wikimedia.org/wikipedia/commons/thumb/b/bb/I-Butane-2D-Skeletal.svg/100px-I-Butane-2D-Skeletal.svg.png","/wiki/Rotation","/wiki/Chemical_bond","/wiki/Conformational_isomerism","#cite_note-Balabin_2009-4","/w/index.php?title=Butane&action=edit&section=2","/wiki/File:Spectrum_of_blue_flame_-_intensity_corrected.png","//upload.wikimedia.org/wikipedia/en/thumb/2/26/Spectrum_of_blue_flame_-_intensity_corrected.png/220px-Spectrum_of_blue_flame_-_intensity_corrected.png","/wiki/File:Spectrum_of_blue_flame_-_intensity_corrected.png","//bits.wikimedia.org/static-1.22wmf10/skins/common/images/magnify-clip.png","/wiki/Butane_torch","/wiki/Radical_(chemistry)","/wiki/Swan_band","/wiki/Carbon_dioxide","/wiki/Soot","/wiki/Adiabatic_flame","/wiki/Air","/wiki/DuPont","/wiki/Maleic_anhydride","/wiki/Free_radical","/wiki/Bond_dissociation_energies","/wiki/Joule","/w/index.php?title=Butane&action=edit&section=3","/wiki/Gasoline","/wiki/Propane","/wiki/Ethylene","/wiki/Butadiene","/wiki/Isobutane","/wiki/Refineries","/wiki/Octane","#cite_note-5","#cite_note-6","#cite_note-7","#cite_note-8","/wiki/Propane","/wiki/Liquified_petroleum_gas","/wiki/Petrochemicals","/wiki/Steam_cracking","/wiki/Lighter","/wiki/Propellant","/wiki/Aerosol_spray","/wiki/Deodorant","/wiki/Gasoline","#cite_note-9","/wiki/Refrigerant","/wiki/Ozone_depletion","/wiki/Halomethane","/wiki/Dichlorodifluoromethane","/wiki/Lighter","/wiki/Butane_torch","/wiki/Hair_iron","#cite_note-10","/w/index.php?title=Butane&action=edit&section=4","/wiki/Euphoria","/wiki/Drowsiness","/wiki/Narcosis","/wiki/Asphyxia","/wiki/Cardiac_arrhythmia","/wiki/Frostbite","/wiki/Asphyxiation","/wiki/Ventricular_fibrillation","#cite_note-11","/wiki/Laryngospasm","#cite_note-multiple-12","/wiki/Sudden_sniffing_death","#cite_note-13","#cite_note-multiple-12","/wiki/THC","/wiki/Cannabis","/wiki/Hash_oil","/wiki/FEMA","#cite_note-14","/wiki/Nitrogen_dioxide","#cite_note-15","/w/index.php?title=Butane&action=edit&section=5","/wiki/Dimethyl_ether","/wiki/Volatile_substance_abuse","/wiki/Butane_(data_page)","/wiki/Butanone","/wiki/N-Butanol","/w/index.php?title=Butane&action=edit&section=6","#cite_ref-1","/wiki/PubChem","http://pubchem.ncbi.nlm.nih.gov/summary/summary.cgi?cid=7843","#cite_ref-2","http://pubs.acs.org/doi/abs/10.1021/ie50363a016","#cite_ref-3","http://www.chemadvisor.com/Matheson/database/msds/MAT15370000800003.PDF","#cite_ref-Balabin_2009_4-0","/wiki/J._Phys._Chem._A","/wiki/Digital_object_identifier","http://dx.doi.org/10.1021%2Fjp809639s","/wiki/PubMed_Identifier","//www.ncbi.nlm.nih.gov/pubmed/19152252","#cite_ref-5","http://www.sec.gov/Archives/edgar/data/1166036/000104746912001759/a2207469z10-k.htm","#cite_ref-6","http://www.sec.gov/Archives/edgar/data/1297067/000119312512089552/d270993d10k.htm","#cite_ref-7","http://www.sec.gov/Archives/edgar/data/1379661/000138917012000005/form10-k.htm","#cite_ref-8","http://www.sec.gov/Archives/edgar/data/1179060/000104746912001738/a2207540z10-k.htm","#cite_ref-9","http://eprinc.org/?p=300","#cite_ref-10","http://www.faa.gov/about/office_org/headquarters_offices/ash/ash_programs/hazmat/media/MaterialsCarriedByPassengersAndCrew.pdf","#cite_ref-11","http://web.archive.org/web/20070327161634/http://www.sgul.ac.uk/dms/AF54AFD9D207A9A41D353717989DC4E0.pdf","#cite_ref-multiple_12-0","#cite_ref-multiple_12-1","/wiki/Digital_object_identifier","http://dx.doi.org/10.1177%2F096032718900800403","/wiki/PubMed_Identifier","//www.ncbi.nlm.nih.gov/pubmed/2777265","#cite_ref-13","/wiki/Digital_object_identifier","http://dx.doi.org/10.1001%2Fjama.1970.03170250031004","/wiki/PubMed_Identifier","//www.ncbi.nlm.nih.gov/pubmed/5467774","#cite_ref-14","http://www.usfa.fema.gov/fireservice/emr-isac/infograms/ig2013/6-13.shtm#1","#cite_ref-15","/wiki/Digital_object_identifier","http://dx.doi.org/10.3844%2Fajassp.2005.707.710","/w/index.php?title=Butane&action=edit&section=7","//upload.wikimedia.org/wikipedia/en/thumb/4/4a/Commons-logo.svg/30px-Commons-logo.svg.png","//commons.wikimedia.org/wiki/Special:Search/Butane","http://www.inchem.org/documents/icsc/icsc/eics0232.htm","http://www.cdc.gov/niosh/npg/npgd0068.html","/wiki/Template:Alkanes","/wiki/Template_talk:Alkanes","//en.wikipedia.org/w/index.php?title=Template:Alkanes&action=edit","/wiki/Alkane","/wiki/Methane","/wiki/Ethane","/wiki/Propane","/wiki/Pentane","/wiki/Hexane","/wiki/Heptane","/wiki/Octane","/wiki/Nonane","/wiki/Decane","/wiki/Undecane","/wiki/Dodecane","/wiki/Tridecane","/wiki/Tetradecane","/wiki/Pentadecane","/wiki/Hexadecane","/wiki/Heptadecane","/wiki/Octadecane","/wiki/Nonadecane","/wiki/Icosane","/wiki/Higher_alkanes","/wiki/List_of_straight-chain_alkanes","/wiki/Template:E_number_infobox_930-949","/wiki/Template_talk:E_number_infobox_930-949","//en.wikipedia.org/w/index.php?title=Template:E_number_infobox_930-949&action=edit","/wiki/E_number","/wiki/Food_coloring","/wiki/Preservative","/wiki/Antioxidant","/wiki/Acidity_regulator","/wiki/Thickener","/wiki/Food_additive#Categories","/wiki/Emulsifier","/wiki/PH","/wiki/Acidity_regulator","/wiki/Anti-caking_agent","/wiki/Flavour_enhancer","/wiki/Wax","/wiki/Glazing_agent","/wiki/Improving_agent","/wiki/Packaging_gas","/wiki/Sugar_substitute","/wiki/Foaming_agent","/wiki/Calcium_peroxide","/wiki/Argon","/wiki/Helium","/wiki/Dichlorodifluoromethane","/wiki/Nitrogen","/wiki/Nitrous_oxide","/wiki/Isobutane","/wiki/Propane","/wiki/Oxygen","/wiki/Hydrogen","//en.wikipedia.org/w/index.php?title=Special:CentralAutoLogin/start&type=1x1&from=enwiki","http://en.wikipedia.org/w/index.php?title=Butane&oldid=565036440","/wiki/Help:Categories","/wiki/Category:Alkanes","/wiki/Category:Fuel_gas","/wiki/Category:Refrigerants","/wiki/Category:Chemboxes_which_contain_changes_to_watched_fields","/w/index.php?title=Special:UserLogin&returnto=Butane&type=signup","/w/index.php?title=Special:UserLogin&returnto=Butane","/wiki/Butane","/wiki/Talk:Butane","#","/wiki/Butane","/w/index.php?title=Butane&action=edit","/w/index.php?title=Butane&action=history","#","/w/index.php","//bits.wikimedia.org/static-1.22wmf10/skins/vector/images/search-ltr.png?303-4","/wiki/Main_Page","/wiki/Main_Page","/wiki/Portal:Contents","/wiki/Portal:Featured_content","/wiki/Portal:Current_events","/wiki/Special:Random","//donate.wikimedia.org/wiki/Special:FundraiserRedirector?utm_source=donate&utm_medium=sidebar&utm_campaign=C13_en.wikipedia.org&uselang=en","/wiki/Help:Contents","/wiki/Wikipedia:About","/wiki/Wikipedia:Community_portal","/wiki/Special:RecentChanges","//en.wikipedia.org/wiki/Wikipedia:Contact_us","/wiki/Special:WhatLinksHere/Butane","/wiki/Special:RecentChangesLinked/Butane","/wiki/Wikipedia:File_Upload_Wizard","/wiki/Special:SpecialPages","/w/index.php?title=Butane&oldid=565036440","/w/index.php?title=Butane&action=info","//www.wikidata.org/wiki/Q134192","/w/index.php?title=Special:Cite&page=Butane&id=565036440","/w/index.php?title=Special:Book&bookcmd=book_creator&referer=Butane","/w/index.php?title=Special:Book&bookcmd=render_article&arttitle=Butane&oldid=565036440&writer=rl","/w/index.php?title=Butane&printable=yes","//ar.wikipedia.org/wiki/%D8%A8%D9%88%D8%AA%D8%A7%D9%86_(%D9%83%D9%8A%D9%85%D9%8A%D8%A7%D8%A1)","//az.wikipedia.org/wiki/Butan_(madd%C9%99)","//be.wikipedia.org/wiki/%D0%91%D1%83%D1%82%D0%B0%D0%BD,_%D1%80%D1%8D%D1%87%D1%8B%D0%B2%D0%B0","//be-x-old.wikipedia.org/wiki/%D0%91%D1%83%D1%82%D0%B0%D0%BD_(%D1%80%D1%8D%D1%87%D1%8B%D0%B2%D0%B0)","//bg.wikipedia.org/wiki/%D0%91%D1%83%D1%82%D0%B0%D0%BD_(%D0%B0%D0%BB%D0%BA%D0%B0%D0%BD)","//bs.wikipedia.org/wiki/Butan_(plin)","//ca.wikipedia.org/wiki/But%C3%A0","//cs.wikipedia.org/wiki/Butan","//da.wikipedia.org/wiki/Butan","//de.wikipedia.org/wiki/N-Butan","//et.wikipedia.org/wiki/Butaan","//el.wikipedia.org/wiki/%CE%92%CE%BF%CF%85%CF%84%CE%AC%CE%BD%CE%B9%CE%BF","//es.wikipedia.org/wiki/Butano","//eo.wikipedia.org/wiki/Butano_(kemio)","//eu.wikipedia.org/wiki/Butano","//fa.wikipedia.org/wiki/%D8%A8%D9%88%D8%AA%D8%A7%D9%86_(%D9%87%DB%8C%D8%AF%D8%B1%D9%88%DA%A9%D8%B1%D8%A8%D9%86)","//fr.wikipedia.org/wiki/Butane","//gl.wikipedia.org/wiki/Butano","//ko.wikipedia.org/wiki/%EB%B7%B0%ED%85%8C%EC%9D%B8","//hi.wikipedia.org/wiki/%E0%A4%AC%E0%A5%8D%E0%A4%AF%E0%A5%82%E0%A4%9F%E0%A5%87%E0%A4%A8","//hr.wikipedia.org/wiki/Butan_(plin)","//id.wikipedia.org/wiki/Butana","//it.wikipedia.org/wiki/Butano","//he.wikipedia.org/wiki/%D7%91%D7%95%D7%98%D7%90%D7%9F","//ku.wikipedia.org/wiki/B%C3%BBtan_(alkan)","//la.wikipedia.org/wiki/Butanum","//lv.wikipedia.org/wiki/But%C4%81ns","//lb.wikipedia.org/wiki/Butan","//lt.wikipedia.org/wiki/Butanas_(dujos)","//hu.wikipedia.org/wiki/But%C3%A1n","//mk.wikipedia.org/wiki/%D0%91%D1%83%D1%82%D0%B0%D0%BD_(%D0%B3%D0%B0%D1%81)","//ml.wikipedia.org/wiki/%E0%B4%AC%E0%B5%8D%E0%B4%AF%E0%B5%82%E0%B4%9F%E0%B5%8D%E0%B4%9F%E0%B5%86%E0%B4%AF%E0%B5%8D%E0%B5%BB","//nl.wikipedia.org/wiki/Butaan","//ja.wikipedia.org/wiki/%E3%83%96%E3%82%BF%E3%83%B3","//no.wikipedia.org/wiki/Butan","//nn.wikipedia.org/wiki/Butan","//pl.wikipedia.org/wiki/Butan","//pt.wikipedia.org/wiki/Butano","//ro.wikipedia.org/wiki/Butan","//ru.wikipedia.org/wiki/%D0%91%D1%83%D1%82%D0%B0%D0%BD_(%D0%B2%D0%B5%D1%89%D0%B5%D1%81%D1%82%D0%B2%D0%BE)","//sco.wikipedia.org/wiki/Butane","//stq.wikipedia.org/wiki/Butan","//simple.wikipedia.org/wiki/Butane","//sk.wikipedia.org/wiki/But%C3%A1n","//sl.wikipedia.org/wiki/Butan_(plin)","//sr.wikipedia.org/wiki/%D0%91%D1%83%D1%82%D0%B0%D0%BD_(%D1%98%D0%B5%D0%B4%D0%B8%D1%9A%D0%B5%D1%9A%D0%B5)","//fi.wikipedia.org/wiki/Butaani","//sv.wikipedia.org/wiki/Butan","//ta.wikipedia.org/wiki/%E0%AE%AA%E0%AE%BF%E0%AE%AF%E0%AF%82%E0%AE%9F%E0%AF%8D%E0%AE%9F%E0%AF%87%E0%AE%A9%E0%AF%8D","//tr.wikipedia.org/wiki/B%C3%BCtan","//uk.wikipedia.org/wiki/%D0%91%D1%83%D1%82%D0%B0%D0%BD_(%D1%81%D0%BF%D0%BE%D0%BB%D1%83%D0%BA%D0%B0)","//ur.wikipedia.org/wiki/Butane","//vi.wikipedia.org/wiki/Butan","//zh.wikipedia.org/wiki/%E4%B8%81%E7%83%B7","#","//www.wikidata.org/wiki/Q134192#sitelinks-wikipedia","//en.wikipedia.org/wiki/Wikipedia:Text_of_Creative_Commons_Attribution-ShareAlike_3.0_Unported_License","//creativecommons.org/licenses/by-sa/3.0/","//wikimediafoundation.org/wiki/Terms_of_Use","//wikimediafoundation.org/wiki/Privacy_policy","//www.wikimediafoundation.org/","//wikimediafoundation.org/wiki/Privacy_policy","/wiki/Wikipedia:About","/wiki/Wikipedia:General_disclaimer","//en.wikipedia.org/wiki/Wikipedia:Contact_us","//en.m.wikipedia.org/wiki/Butane","//wikimediafoundation.org/","//bits.wikimedia.org/images/wikimedia-button.png","//www.mediawiki.org/","//bits.wikimedia.org/static-1.22wmf10/skins/common/images/poweredby_mediawiki_88x31.png","//bits.wikimedia.org/en.wikipedia.org/load.php?debug=false&lang=en&modules=site&only=scripts&skin=vector&*"],"instances":["data_page","chemistry"],"pdf":["http://www.faa.gov/about/office_org/headquarters_offices/ash/ash_programs/hazmat/media/MaterialsCarriedByPassengersAndCrew.pdf","http://web.archive.org/web/20070327161634/http://www.sgul.ac.uk/dms/AF54AFD9D207A9A41D353717989DC4E0.pdf"],"categories":["Alkanes","Fuel gas","Refrigerants"],"headings":["Isomers","Reactions","Uses","Effects and health issues","See also","References","External links"],"image":["//upload.wikimedia.org/wikipedia/commons/thumb/a/ab/Butane_simple.svg/100px-Butane_simple.svg.png","//upload.wikimedia.org/wikipedia/commons/thumb/0/09/ButaneFull.png/100px-ButaneFull.png","//upload.wikimedia.org/wikipedia/commons/thumb/7/76/Butane-3D-balls.png/100px-Butane-3D-balls.png","//upload.wikimedia.org/wikipedia/commons/thumb/9/95/Butane-3D-space-filling.png/100px-Butane-3D-space-filling.png","//upload.wikimedia.org/wikipedia/en/thumb/f/fb/Yes_check.svg/7px-Yes_check.svg.png","//upload.wikimedia.org/wikipedia/en/thumb/f/fb/Yes_check.svg/7px-Yes_check.svg.png","//upload.wikimedia.org/wikipedia/en/thumb/f/fb/Yes_check.svg/7px-Yes_check.svg.png","//upload.wikimedia.org/wikipedia/en/thumb/f/fb/Yes_check.svg/7px-Yes_check.svg.png","//upload.wikimedia.org/wikipedia/en/thumb/f/fb/Yes_check.svg/7px-Yes_check.svg.png","//upload.wikimedia.org/wikipedia/en/thumb/f/fb/Yes_check.svg/7px-Yes_check.svg.png","//upload.wikimedia.org/wikipedia/en/thumb/f/fb/Yes_check.svg/7px-Yes_check.svg.png","//upload.wikimedia.org/wikipedia/en/thumb/f/fb/Yes_check.svg/7px-Yes_check.svg.png","//upload.wikimedia.org/wikipedia/commons/thumb/6/6d/GHS-pictogram-flamme.svg/50px-GHS-pictogram-flamme.svg.png","//upload.wikimedia.org/wikipedia/commons/thumb/0/06/Hazard_F.svg/40px-Hazard_F.svg.png","//upload.wikimedia.org/wikipedia/commons/thumb/6/6f/NFPA_704.svg/75px-NFPA_704.svg.png","//upload.wikimedia.org/wikipedia/en/thumb/f/fb/Yes_check.svg/14px-Yes_check.svg.png","//upload.wikimedia.org/wikipedia/en/thumb/f/fb/Yes_check.svg/10px-Yes_check.svg.png","//upload.wikimedia.org/wikipedia/commons/thumb/a/a2/X_mark.svg/10px-X_mark.svg.png","//upload.wikimedia.org/wikipedia/commons/thumb/c/cb/Butan_Lewis.svg/150px-Butan_Lewis.svg.png","//upload.wikimedia.org/wikipedia/commons/thumb/9/98/Isobutane.png/120px-Isobutane.png","//upload.wikimedia.org/wikipedia/commons/thumb/a/ab/Butane_simple.svg/120px-Butane_simple.svg.png","//upload.wikimedia.org/wikipedia/commons/thumb/b/bb/I-Butane-2D-Skeletal.svg/100px-I-Butane-2D-Skeletal.svg.png","//upload.wikimedia.org/wikipedia/en/thumb/2/26/Spectrum_of_blue_flame_-_intensity_corrected.png/220px-Spectrum_of_blue_flame_-_intensity_corrected.png","//bits.wikimedia.org/static-1.22wmf10/skins/common/images/magnify-clip.png","//upload.wikimedia.org/wikipedia/en/thumb/4/4a/Commons-logo.svg/30px-Commons-logo.svg.png","//en.wikipedia.org/w/index.php?title=Special:CentralAutoLogin/start&type=1x1&from=enwiki","//bits.wikimedia.org/static-1.22wmf10/skins/vector/images/search-ltr.png?303-4","//bits.wikimedia.org/images/wikimedia-button.png","//bits.wikimedia.org/static-1.22wmf10/skins/common/images/poweredby_mediawiki_88x31.png"],"tags":[["radical","chemistry"],["butane","data_page"]],"members":["butane","radical"],"related":["Perfluorobutane","Organic_compound","Alkane","Carbon","Atom","Structural_isomers","Isomer","IUPAC","Liquefy","Gas","Butyric_acid","Alkanes","Rotation","Chemical_bond","Conformational_isomerism","Radical_(chemistry)","Swan_band","Carbon_dioxide","Soot","Adiabatic_flame","Air","DuPont","Maleic_anhydride","Free_radical","Bond_dissociation_energies","Joule","Gasoline","Propane","Ethylene","Butadiene","Isobutane","Refineries","Octane","Propane","Liquified_petroleum_gas","Petrochemicals","Steam_cracking","Lighter","Propellant","Aerosol_spray","Deodorant","Gasoline","Refrigerant","Ozone_depletion","Halomethane","Dichlorodifluoromethane","Lighter","Butane_torch","Hair_iron","Euphoria","Drowsiness","Narcosis","Asphyxia","Cardiac_arrhythmia","Frostbite","Asphyxiation","Ventricular_fibrillation","Laryngospasm","Sudden_sniffing_death","THC","Cannabis","Hash_oil","FEMA","Nitrogen_dioxide","Dimethyl_ether","Volatile_substance_abuse","Butane_(data_page)","Butanone","N-Butanol"]}