{"cursor":"5379","size":15,"audio":[],"currentlang":"en","article":"{{chembox\n| verifiedrevid = 443491541 reference = Merck Index, 12th Edition,\n| '1611'. ImageFile = Butanethiol.svg ImageSize = 180px ImageName =\n| Skeletal formula ImageFile1 = Butanethiol-3D-balls.png ImageSize1 = 200px\n| ImageName1 = Ball-and-stick model IUPACName = Butane-1-thiol OtherNames =\n| Butyl mercaptan n-Butyl mercaptan 1-Butanethiol Thiobutyl\n| alcohol Mercaptobutane Section1 = {{Chembox Identifiers Abbreviations =\n| ChemSpiderID_Ref = ChemSpiderID = 7721 InChIKey = WQAQPCDUOCURKW-UHFFFAOYAG\n| StdInChI_Ref = StdInChI = 1S/C4H10S/c1-2-3-4-5/h5H,2-4H2,1H3 StdInChIKey_Ref =\n| StdInChIKey = WQAQPCDUOCURKW-UHFFFAOYSA-N CASNo_Ref = CASNo = 109-79-5 EINECS\n| = PubChem = 8012 UNII_Ref = UNII = 77OY909F30 SMILES = SCCCC InChI = 1/C4H10S/c1-2-3-4-5/h5H,2-\n| 4H2,1H3 RTECS = MeSHName = ChEBI_Ref = ChEBI = KEGG_Ref = KEGG =\n| ATCCode_prefix = ATCCode_suffix = ATC_Supplemental =}} Section2 = {{Chembox\n| Properties C=4|H=10|S=1 Appearance = Nauseating clear liquid Density = 0.83679\n| g/mL MeltingPtC = -115.8 Melting_notes = BoilingPtC = 98.2 Boiling_notes =\n| Solubility = Slightly soluble SolubleOther = Solvent = pKa = pKb = }} Section7\n| = {{Chembox Hazards EUClass = EUIndex = MainHazards = NFPA-H = 2 NFPA-F = 3\n| NFPA-R = 0 NFPA-O = RPhrases = SPhrases = RSPhrases = FlashPt = Autoignition =\n| ExploLimits = PEL = }}\n}}\n\n'Butanethiol', also known as 'butyl mercaptan', is a volatile, clear to\nyellowish liquid with a fetid (extremely foul-smelling) odor, commonly described\nas \"skunk\" odor. In fact, butanethiol is structurally similar to several major\nconstituents of a skunk's defensive spray but is not actually present in the\nspray. The scent of butanethiol is so strong that the human nose can\neasily detect it in the air at concentrations as low as 10 parts per billion.\nThe threshold level for 1-butanethiol is reported as 1.4 ppb\n","linknr":168,"url":"Butanethiol","recorded":1374548450,"links":["/w/index.php?title=Butanethiol&action=edit","/w/index.php?title=Butanethiol&action=edit","//bits.wikimedia.org/favicon/wikipedia.ico","/w/opensearch_desc.php","//en.wikipedia.org/w/api.php?action=rsd","//creativecommons.org/licenses/by-sa/3.0/","/w/index.php?title=Special:RecentChanges&feed=atom","//bits.wikimedia.org/en.wikipedia.org/load.php?debug=false&lang=en&modules=ext.gadget.DRN-wizard%2CReferenceTooltips%2Ccharinsert%2Cteahouse%7Cext.rtlcite%2Cwikihiero%7Cext.uls.nojs%7Cmediawiki.legacy.commonPrint%2Cshared%7Cmw.PopUpMediaTransform%7Cskins.vector&only=styles&skin=vector&*","//bits.wikimedia.org/en.wikipedia.org/load.php?debug=false&lang=en&modules=site&only=styles&skin=vector&*","//bits.wikimedia.org/en.wikipedia.org/load.php?debug=false&lang=en&modules=startup&only=scripts&skin=vector&*","//bits.wikimedia.org/geoiplookup","//meta.wikimedia.org","#mw-navigation","#p-search","/wiki/File:Butanethiol.svg","//upload.wikimedia.org/wikipedia/commons/thumb/3/3b/Butanethiol.svg/180px-Butanethiol.svg.png","/wiki/File:Butanethiol-3D-balls.png","//upload.wikimedia.org/wikipedia/commons/thumb/d/dd/Butanethiol-3D-balls.png/200px-Butanethiol-3D-balls.png","/wiki/International_Union_of_Pure_and_Applied_Chemistry_nomenclature","/wiki/CAS_registry_number","http://www.commonchemistry.org/ChemicalDetail.aspx?ref=109-79-5","//upload.wikimedia.org/wikipedia/en/thumb/f/fb/Yes_check.svg/7px-Yes_check.svg.png","/wiki/PubChem","http://pubchem.ncbi.nlm.nih.gov/summary/summary.cgi?cid=8012","/wiki/ChemSpider","http://www.chemspider.com/7721","//upload.wikimedia.org/wikipedia/en/thumb/f/fb/Yes_check.svg/7px-Yes_check.svg.png","/wiki/Unique_Ingredient_Identifier","http://fdasis.nlm.nih.gov/srs/srsdirect.jsp?regno=77OY909F30","//upload.wikimedia.org/wikipedia/en/thumb/f/fb/Yes_check.svg/7px-Yes_check.svg.png","/wiki/Jmol","http://chemapps.stolaf.edu/jmol/jmol.php?model=SCCCC","/wiki/Simplified_molecular-input_line-entry_system","/wiki/International_Chemical_Identifier","//upload.wikimedia.org/wikipedia/en/thumb/f/fb/Yes_check.svg/7px-Yes_check.svg.png","//upload.wikimedia.org/wikipedia/en/thumb/f/fb/Yes_check.svg/7px-Yes_check.svg.png","/wiki/Molecular_formula","/wiki/Molar_mass","/wiki/Density","/wiki/Melting_point","/wiki/Boiling_point","/wiki/Solubility","/wiki/Water","/wiki/NFPA_704","/wiki/File:NFPA_704.svg","//upload.wikimedia.org/wikipedia/commons/thumb/6/6f/NFPA_704.svg/75px-NFPA_704.svg.png","//upload.wikimedia.org/wikipedia/en/thumb/f/fb/Yes_check.svg/14px-Yes_check.svg.png","//en.wikipedia.org/w/index.php?title=Special:ComparePages&rev1=443491541&page2=Butanethiol","/wiki/Wikipedia:WikiProject_Chemicals/Chembox_validation","//upload.wikimedia.org/wikipedia/en/thumb/f/fb/Yes_check.svg/10px-Yes_check.svg.png","//upload.wikimedia.org/wikipedia/commons/thumb/a/a2/X_mark.svg/10px-X_mark.svg.png","/wiki/Standard_state","/wiki/Wikipedia:Chemical_infobox#References","/wiki/Volatility_(chemistry)","/wiki/Liquid","/wiki/Skunk","#cite_note-1","#cite_note-2","#Chemistry","#Uses","#Safety","#See_also","#Notes","#References","#External_links","/w/index.php?title=Butanethiol&action=edit&section=1","/wiki/Thiol","/wiki/Organic_compounds","/wiki/Molecular_formula","/wiki/Structural_formula","/wiki/Alcohol","/wiki/Sulfur","/wiki/Sulfhydryl_group","/wiki/Oxygen","/wiki/Hydroxyl_group","/wiki/N-Butanol","/wiki/Molecular_weight","/wiki/Flammable","/w/index.php?title=Butanethiol&action=edit&section=2","/wiki/Wikipedia:Citation_needed","#cite_note-3","/wiki/Stink_bomb","/w/index.php?title=Butanethiol&action=edit&section=3","/wiki/Wikipedia:Citation_needed","#cite_note-4","/w/index.php?title=Butanethiol&action=edit&section=4","/wiki/Tert-Butylthiol","/w/index.php?title=Butanethiol&action=edit&section=5","#cite_ref-1","/wiki/Digital_object_identifier","http://dx.doi.org/10.1021%2Fed055p159","#cite_ref-2","/wiki/International_Standard_Book_Number","/wiki/Special:BookSources/0199631468","#cite_ref-3","http://toxnet.nlm.nih.gov/cgi-bin/sis/search/a?dbs+hsdb:@term+@DOCNO+1777","#cite_ref-4","http://www.cdc.gov/niosh/ipcsneng/neng0018.html","/w/index.php?title=Butanethiol&action=edit&section=6","http://www.osha.gov/dts/chemicalsampling/data/CH_223600.html","http://www.thegoodscentscompany.com/data/rw1007541.html","http://hazmap.nlm.nih.gov/cgi-bin/hazmap_generic?tbl=TblAgents&id=184","/w/index.php?title=Butanethiol&action=edit&section=7","http://users.humboldt.edu/wfwood/skunkspray.shtml","//en.wikipedia.org/w/index.php?title=Special:CentralAutoLogin/start&type=1x1&from=enwiki","http://en.wikipedia.org/w/index.php?title=Butanethiol&oldid=540552564","/wiki/Help:Categories","/wiki/Category:Thiols","/wiki/Category:All_articles_with_unsourced_statements","/wiki/Category:Articles_with_unsourced_statements_from_May_2012","/wiki/Category:Articles_with_unsourced_statements_from_January_2012","/w/index.php?title=Special:UserLogin&returnto=Butanethiol&type=signup","/w/index.php?title=Special:UserLogin&returnto=Butanethiol","/wiki/Butanethiol","/wiki/Talk:Butanethiol","#","/wiki/Butanethiol","/w/index.php?title=Butanethiol&action=edit","/w/index.php?title=Butanethiol&action=history","#","/w/index.php","//bits.wikimedia.org/static-1.22wmf10/skins/vector/images/search-ltr.png?303-4","/wiki/Main_Page","/wiki/Main_Page","/wiki/Portal:Contents","/wiki/Portal:Featured_content","/wiki/Portal:Current_events","/wiki/Special:Random","//donate.wikimedia.org/wiki/Special:FundraiserRedirector?utm_source=donate&utm_medium=sidebar&utm_campaign=C13_en.wikipedia.org&uselang=en","/wiki/Help:Contents","/wiki/Wikipedia:About","/wiki/Wikipedia:Community_portal","/wiki/Special:RecentChanges","//en.wikipedia.org/wiki/Wikipedia:Contact_us","/wiki/Special:WhatLinksHere/Butanethiol","/wiki/Special:RecentChangesLinked/Butanethiol","/wiki/Wikipedia:File_Upload_Wizard","/wiki/Special:SpecialPages","/w/index.php?title=Butanethiol&oldid=540552564","/w/index.php?title=Butanethiol&action=info","//www.wikidata.org/wiki/Q195823","/w/index.php?title=Special:Cite&page=Butanethiol&id=540552564","/w/index.php?title=Special:Book&bookcmd=book_creator&referer=Butanethiol","/w/index.php?title=Special:Book&bookcmd=render_article&arttitle=Butanethiol&oldid=540552564&writer=rl","/w/index.php?title=Butanethiol&printable=yes","//de.wikipedia.org/wiki/Butanthiol","//el.wikipedia.org/wiki/%CE%92%CE%BF%CF%85%CF%84%CE%B1%CE%BD%CE%BF%CE%B8%CE%B5%CE%B9%CF%8C%CE%BB%CE%B7-1","//fa.wikipedia.org/wiki/%D8%A8%D9%88%D8%AA%D8%A7%D9%86%D8%AA%DB%8C%D9%88%D9%84","//nl.wikipedia.org/wiki/1-butaanthiol","//pt.wikipedia.org/wiki/Butanotiol","//fi.wikipedia.org/wiki/N-butyylimerkaptaani","//zh.wikipedia.org/wiki/%E6%AD%A3%E4%B8%81%E7%A1%AB%E9%86%87","#","//www.wikidata.org/wiki/Q195823#sitelinks-wikipedia","//en.wikipedia.org/wiki/Wikipedia:Text_of_Creative_Commons_Attribution-ShareAlike_3.0_Unported_License","//creativecommons.org/licenses/by-sa/3.0/","//wikimediafoundation.org/wiki/Terms_of_Use","//wikimediafoundation.org/wiki/Privacy_policy","//www.wikimediafoundation.org/","//wikimediafoundation.org/wiki/Privacy_policy","/wiki/Wikipedia:About","/wiki/Wikipedia:General_disclaimer","//en.wikipedia.org/wiki/Wikipedia:Contact_us","//en.m.wikipedia.org/wiki/Butanethiol","//wikimediafoundation.org/","//bits.wikimedia.org/images/wikimedia-button.png","//www.mediawiki.org/","//bits.wikimedia.org/static-1.22wmf10/skins/common/images/poweredby_mediawiki_88x31.png","//bits.wikimedia.org/en.wikipedia.org/load.php?debug=false&lang=en&modules=site&only=scripts&skin=vector&*"],"instances":["chemistry"],"pdf":[],"categories":["Thiols"],"headings":["Chemistry","Uses","Safety","See also","Notes","References","External links"],"image":["//upload.wikimedia.org/wikipedia/commons/thumb/3/3b/Butanethiol.svg/180px-Butanethiol.svg.png","//upload.wikimedia.org/wikipedia/commons/thumb/d/dd/Butanethiol-3D-balls.png/200px-Butanethiol-3D-balls.png","//upload.wikimedia.org/wikipedia/en/thumb/f/fb/Yes_check.svg/7px-Yes_check.svg.png","//upload.wikimedia.org/wikipedia/en/thumb/f/fb/Yes_check.svg/7px-Yes_check.svg.png","//upload.wikimedia.org/wikipedia/en/thumb/f/fb/Yes_check.svg/7px-Yes_check.svg.png","//upload.wikimedia.org/wikipedia/en/thumb/f/fb/Yes_check.svg/7px-Yes_check.svg.png","//upload.wikimedia.org/wikipedia/en/thumb/f/fb/Yes_check.svg/7px-Yes_check.svg.png","//upload.wikimedia.org/wikipedia/commons/thumb/6/6f/NFPA_704.svg/75px-NFPA_704.svg.png","//upload.wikimedia.org/wikipedia/en/thumb/f/fb/Yes_check.svg/14px-Yes_check.svg.png","//upload.wikimedia.org/wikipedia/en/thumb/f/fb/Yes_check.svg/10px-Yes_check.svg.png","//upload.wikimedia.org/wikipedia/commons/thumb/a/a2/X_mark.svg/10px-X_mark.svg.png","//en.wikipedia.org/w/index.php?title=Special:CentralAutoLogin/start&type=1x1&from=enwiki","//bits.wikimedia.org/static-1.22wmf10/skins/vector/images/search-ltr.png?303-4","//bits.wikimedia.org/images/wikimedia-button.png","//bits.wikimedia.org/static-1.22wmf10/skins/common/images/poweredby_mediawiki_88x31.png"],"tags":[["volatility","chemistry"]],"members":["volatility"],"related":["Volatility_(chemistry)","Liquid","Skunk","Thiol","Organic_compounds","Molecular_formula","Structural_formula","Alcohol","Sulfur","Sulfhydryl_group","Oxygen","Hydroxyl_group","N-Butanol","Molecular_weight","Flammable","Stink_bomb","Tert-Butylthiol"]}