{"cursor":"2423","size":15,"audio":[],"currentlang":"en","article":"{{chembox\n| verifiedrevid = 396304025 Reference = [[The Merck Index]], 12th Edition,\n| '1591' ImageFile = Butyl butyrate2.svg ImageSize = 200px IUPACName =\n| Butyl butanoate OtherNames = Butyl butyrate, 1-Butyl butyrate, n-Butyl\n| butyrate, n-Butyl n-butyrate, Butanoic acid butyl ester, Butyric acid butyl\n| ester, n-Butyl butanoate, Section1 = {{Chembox Identifiers ChemSpiderID_Ref =\n| ChemSpiderID = 7694 UNII_Ref = UNII = 1BHV00T1M4 InChIKey = XUPYJHCZDLZNFP-\n| UHFFFAOYAI StdInChI_Ref = StdInChI = 1S/C8H16O2/c1-3-5-7-10-8(9)6-4-2/h3-7H2,1-\n| 2H3 StdInChIKey_Ref = StdInChIKey = XUPYJHCZDLZNFP-UHFFFAOYSA-N CASNo_Ref =\n| CASNo = 109-21-7 PubChem = 7983 SMILES = O=C(OCCCC)CCC InChI = 1/C8H16O2/c1-3-5-7-10-8(9)6-4-2/h3-7H2,1-\n| 2H3 RTECS = ES8120000\n  }}\n| Section2 = {{Chembox Properties C=8|H=16|O=2 Appearance = Density = 0.8692\n| g/cm 3 at 20 °C MeltingPtC = -91.5 BoilingPtC = 165 Solubility =\n| insoluble\n  }}\n| Section3 = {{Chembox Hazards MainHazards = FlashPt = 49 °C Autoignition = NFPA-\n| H = 1 NFPA-F = 2 NFPA-R = 0 NFPA-O = RPhrases = ,\n  }} }}\n\n'Butyl butyrate', or butyl butanoate, is an organic compound that is an ester\nformed by the condensation of butyric acid and ''n''-butanol. It is a clear,\ncolorless liquid that is insoluble in water, but miscible with ethanol and\ndiethyl ether. Its refractive index is 1.406 at 20 °C.\n","linknr":135,"url":"Butyl_butyrate","recorded":1363148311,"links":["/w/index.php?title=Butyl_butyrate&action=edit","/w/index.php?title=Butyl_butyrate&action=edit","//en.wikipedia.org/apple-touch-icon.png","//bits.wikimedia.org/favicon/wikipedia.ico","/w/opensearch_desc.php","//en.wikipedia.org/w/api.php?action=rsd","//creativecommons.org/licenses/by-sa/3.0/","/w/index.php?title=Special:RecentChanges&feed=atom","//bits.wikimedia.org/en.wikipedia.org/load.php?debug=false&lang=en&modules=ext.gadget.DRN-wizard%2CReferenceTooltips%2Ccharinsert%2Cteahouse%7Cext.wikihiero%7Cmediawiki.legacy.commonPrint%2Cshared%7Cmw.PopUpMediaTransform%7Cskins.vector&only=styles&skin=vector&*","//bits.wikimedia.org/en.wikipedia.org/load.php?debug=false&lang=en&modules=site&only=styles&skin=vector&*","//bits.wikimedia.org/en.wikipedia.org/load.php?debug=false&lang=en&modules=startup&only=scripts&skin=vector&*","//bits.wikimedia.org/geoiplookup","//meta.wikimedia.org","#mw-head","#p-search","#cite_note-1","/wiki/File:Butyl_butyrate2.svg","//upload.wikimedia.org/wikipedia/commons/thumb/e/e7/Butyl_butyrate2.svg/200px-Butyl_butyrate2.svg.png","/wiki/International_Union_of_Pure_and_Applied_Chemistry_nomenclature","/wiki/CAS_registry_number","http://www.commonchemistry.org/ChemicalDetail.aspx?ref=109-21-7","//upload.wikimedia.org/wikipedia/en/thumb/f/fb/Yes_check.svg/7px-Yes_check.svg.png","/wiki/PubChem","http://pubchem.ncbi.nlm.nih.gov/summary/summary.cgi?cid=7983","/wiki/ChemSpider","http://www.chemspider.com/7694","//upload.wikimedia.org/wikipedia/en/thumb/f/fb/Yes_check.svg/7px-Yes_check.svg.png","/wiki/Unique_Ingredient_Identifier","http://fdasis.nlm.nih.gov/srs/srsdirect.jsp?regno=1BHV00T1M4","//upload.wikimedia.org/wikipedia/en/thumb/f/fb/Yes_check.svg/7px-Yes_check.svg.png","/wiki/RTECS","/wiki/Jmol","http://chemapps.stolaf.edu/jmol/jmol.php?model=O%3DC%28OCCCC%29CCC","/wiki/Simplified_molecular-input_line-entry_system","/wiki/International_Chemical_Identifier","//upload.wikimedia.org/wikipedia/en/thumb/f/fb/Yes_check.svg/7px-Yes_check.svg.png","//upload.wikimedia.org/wikipedia/en/thumb/f/fb/Yes_check.svg/7px-Yes_check.svg.png","/wiki/Molecular_formula","/wiki/Molar_mass","/wiki/Density","/wiki/Melting_point","/wiki/Boiling_point","/wiki/Solubility","/wiki/Water","/wiki/List_of_R-phrases","/wiki/R10:_Flammable","/wiki/R36/38:_Irritating_to_eyes_and_skin","/wiki/NFPA_704","/wiki/File:NFPA_704.svg","//upload.wikimedia.org/wikipedia/commons/thumb/6/6f/NFPA_704.svg/75px-NFPA_704.svg.png","/wiki/Flash_point","//upload.wikimedia.org/wikipedia/en/thumb/f/fb/Yes_check.svg/14px-Yes_check.svg.png","//en.wikipedia.org/w/index.php?title=Special:ComparePages&rev1=396304025&page2=Butyl+butyrate","/wiki/Wikipedia:WikiProject_Chemicals/Chembox_validation","//upload.wikimedia.org/wikipedia/en/thumb/f/fb/Yes_check.svg/10px-Yes_check.svg.png","//upload.wikimedia.org/wikipedia/commons/thumb/a/a2/X_mark.svg/10px-X_mark.svg.png","/wiki/Standard_state","/wiki/Wikipedia:Chemical_infobox#References","/wiki/Organic_compound","/wiki/Ester","/wiki/Butyric_acid","/wiki/N-Butanol","/wiki/Ethanol","/wiki/Diethyl_ether","/wiki/Refractive_index","/w/index.php?title=Butyl_butyrate&action=edit&section=1","/w/index.php?title=Butyl_butyrate&action=edit&section=2","#cite_note-gov.usa-2","#cite_note-gov.usa-2","/w/index.php?title=Butyl_butyrate&action=edit&section=3","#cite_ref-1","/wiki/The_Merck_Index","#cite_ref-gov.usa_2-0","#cite_ref-gov.usa_2-1","http://cameochemicals.noaa.gov/chemical/10702","http://en.wikipedia.org/w/index.php?title=Butyl_butyrate&oldid=540567067","/wiki/Help:Categories","/wiki/Category:Butyrates","/wiki/Category:Flavors","/w/index.php?title=Special:UserLogin&returnto=Butyl+butyrate&type=signup","/w/index.php?title=Special:UserLogin&returnto=Butyl+butyrate","/wiki/Butyl_butyrate","/wiki/Talk:Butyl_butyrate","#","/wiki/Butyl_butyrate","/w/index.php?title=Butyl_butyrate&action=edit","/w/index.php?title=Butyl_butyrate&action=history","#","/w/index.php","//bits.wikimedia.org/static-1.21wmf10/skins/vector/images/search-ltr.png?303-4","/wiki/Main_Page","/wiki/Main_Page","/wiki/Portal:Contents","/wiki/Portal:Featured_content","/wiki/Portal:Current_events","/wiki/Special:Random","//donate.wikimedia.org/wiki/Special:FundraiserRedirector?utm_source=donate&utm_medium=sidebar&utm_campaign=C13_en.wikipedia.org&uselang=en","/wiki/Help:Contents","/wiki/Wikipedia:About","/wiki/Wikipedia:Community_portal","/wiki/Special:RecentChanges","/wiki/Wikipedia:Contact_us","/wiki/Special:WhatLinksHere/Butyl_butyrate","/wiki/Special:RecentChangesLinked/Butyl_butyrate","/wiki/Wikipedia:File_Upload_Wizard","/wiki/Special:SpecialPages","/w/index.php?title=Butyl_butyrate&oldid=540567067","/w/index.php?title=Butyl_butyrate&action=info","/w/index.php?title=Special:Cite&page=Butyl_butyrate&id=540567067","/w/index.php?title=Special:Book&bookcmd=book_creator&referer=Butyl+butyrate","/w/index.php?title=Special:Book&bookcmd=render_article&arttitle=Butyl+butyrate&oldid=540567067&writer=rl","/w/index.php?title=Butyl_butyrate&printable=yes","//fa.wikipedia.org/wiki/%D8%A8%D9%88%D8%AA%DB%8C%D9%84_%D8%A8%D9%88%D8%AA%DB%8C%D8%B1%D8%A7%D8%AA","//fr.wikipedia.org/wiki/Butanoate_de_butyle","//nl.wikipedia.org/wiki/Butylbutyraat","//ja.wikipedia.org/wiki/%E9%85%AA%E9%85%B8%E3%83%96%E3%83%81%E3%83%AB","//pl.wikipedia.org/wiki/Ma%C5%9Blan_butylu","//pt.wikipedia.org/wiki/Butanoato_de_butila","//zh.wikipedia.org/wiki/%E4%B8%81%E9%85%B8%E4%B8%81%E9%85%AF","//www.wikidata.org/wiki/Special:ItemByTitle/enwiki/Butyl butyrate","//en.wikipedia.org/wiki/Wikipedia:Text_of_Creative_Commons_Attribution-ShareAlike_3.0_Unported_License","//creativecommons.org/licenses/by-sa/3.0/","//wikimediafoundation.org/wiki/Terms_of_Use","//www.wikimediafoundation.org/","//en.wikipedia.org/wiki/Wikipedia:Contact_us","//wikimediafoundation.org/wiki/Privacy_policy","/wiki/Wikipedia:About","/wiki/Wikipedia:General_disclaimer","http://en.m.wikipedia.org/wiki/Butyl_butyrate","//wikimediafoundation.org/","//bits.wikimedia.org/images/wikimedia-button.png","//www.mediawiki.org/","//bits.wikimedia.org/static-1.21wmf10/skins/common/images/poweredby_mediawiki_88x31.png","//bits.wikimedia.org/en.wikipedia.org/load.php?debug=false&lang=en&modules=skins.vector&only=scripts&skin=vector&*","/w/index.php?title=MediaWiki:Gadget-ReferenceTooltips.js&action=raw&ctype=text/javascript&508635914","//bits.wikimedia.org/en.wikipedia.org/load.php?debug=false&lang=en&modules=site&only=scripts&skin=vector&*"],"instances":[],"pdf":[],"categories":["Butyrates","Flavors"],"headings":["Aroma","Safety","References"],"image":["//upload.wikimedia.org/wikipedia/commons/thumb/e/e7/Butyl_butyrate2.svg/200px-Butyl_butyrate2.svg.png","//upload.wikimedia.org/wikipedia/en/thumb/f/fb/Yes_check.svg/7px-Yes_check.svg.png","//upload.wikimedia.org/wikipedia/en/thumb/f/fb/Yes_check.svg/7px-Yes_check.svg.png","//upload.wikimedia.org/wikipedia/en/thumb/f/fb/Yes_check.svg/7px-Yes_check.svg.png","//upload.wikimedia.org/wikipedia/en/thumb/f/fb/Yes_check.svg/7px-Yes_check.svg.png","//upload.wikimedia.org/wikipedia/en/thumb/f/fb/Yes_check.svg/7px-Yes_check.svg.png","//upload.wikimedia.org/wikipedia/commons/thumb/6/6f/NFPA_704.svg/75px-NFPA_704.svg.png","//upload.wikimedia.org/wikipedia/en/thumb/f/fb/Yes_check.svg/14px-Yes_check.svg.png","//upload.wikimedia.org/wikipedia/en/thumb/f/fb/Yes_check.svg/10px-Yes_check.svg.png","//upload.wikimedia.org/wikipedia/commons/thumb/a/a2/X_mark.svg/10px-X_mark.svg.png","//bits.wikimedia.org/static-1.21wmf10/skins/vector/images/search-ltr.png?303-4","//bits.wikimedia.org/images/wikimedia-button.png","//bits.wikimedia.org/static-1.21wmf10/skins/common/images/poweredby_mediawiki_88x31.png"],"tags":[],"members":[],"related":["Organic_compound","Ester","Butyric_acid","N-Butanol","Ethanol","Diethyl_ether","Refractive_index"]}