{"cursor":"3776","size":15,"audio":[],"currentlang":"en","article":"{{chembox\n| Watchedfields = changed verifiedrevid = 451895055 Name = Arabinose ImageFile =\n| DL-Arabinose.svg IUPACName = Arabinose OtherNames = Pectinose Section1 =\n| {{Chembox Identifiers ChemSpiderID_Ref = ChemSpiderID = 59687 InChI = 1/C5H10O5/c6-1-3(8)5(10)4(9)2-7/h1,3-5,7-10H,2H2/t3-,4-\n| ,5+/m1/s1 ChEBI_Ref = ChEBI = 46983 SMILES = O=C[C@@H](O)[C@H](O)[C@H](O)CO\n| InChIKey = PYMYPHUHKUWMLA-WDCZJNDABW SMILES1 =\n| C([C@H]([C@H]([C@@H](C=O)O)O)O)O StdInChI_Ref = StdInChI = 1S/C5H10O5/c6-1-3(8)5(10)4(9)2-7/h1,3-5,7-10H,2H2/t3-,4-\n| ,5+/m1/s1 StdInChIKey_Ref = StdInChIKey = PYMYPHUHKUWMLA-WDCZJNDASA-N CASNo =\n| 147-81-9 CASNo_Ref = CASNo1 = 10323-20-3 CASNo1_Comment = ( D)\n| CASNo1_Ref = CASNo2 = 5328-37-0 CASNo2_Comment = ( L) CASNo2_Ref\n| = EC-number = 205-699-8 \n| PubChem = 5460291\n  }}\n| Section2 = {{Chembox Properties Reference =  C=5|H=10|O=5\n| Appearance = Colorless crystals as prisms or needles Density = 1.585\n| g/cm 3 (20 ºC) MolarMass = 150.13 g/mol MeltingPtCL = 164\n| MeltingPtCH = 165 Solubility = Soluble\n  }}\n| Section7 = {{Chembox Hazards NFPA-H = 1 NFPA-F = 1 NFPA-R = 0 EUIndex =\n| FlashPt =\n  }}\n| Section8 = {{Chembox Related OtherFunctn = Ribose Xylose Lyxose\n| Function = aldopentoses OtherCpds =\n  }} }}\n\n'Arabinose' is an aldopentose – a monosaccharide containing five carbon atoms,\nand including an aldehyde (CHO) functional group.\n\nFor biosynthetic reasons, most saccharides are almost always more abundant in\nnature as the \" D\"-form, or structurally analogous to D -\nglyceraldehyde. For sugars, the\nD /L nomenclature does not refer to the molecule's\noptical rotation properties but to its structural analogy to\nglyceraldehyde. However, L -arabinose is in fact more common\nthan D -arabinose in nature and is found in nature as a component\nof biopolymers such as hemicellulose and pectin. The L -arabinose\noperon is a very important operon in molecular biology and bioengineering.\n\nA classic method for the organic synthesis of arabinose from glucose is the Wohl\ndegradation.\n\n:{| class=\"wikitable\"\n|- style=\"background-color:#FFDEAD;\"\n! colspan=\"2\" | D -Arabinose\n|- align=\"center\" | α- D-Arabinofuranose align=\"center\" |\n|  β- D-Arabinofuranose\n|- align=\"center\" | α- D-Arabinopyranose align=\"center\" |\n|  β- D-Arabinopyranose }\n","linknr":300,"url":"Arabinose","recorded":1374859056,"links":["/w/index.php?title=Arabinose&action=edit","/w/index.php?title=Arabinose&action=edit","//bits.wikimedia.org/favicon/wikipedia.ico","/w/opensearch_desc.php","//en.wikipedia.org/w/api.php?action=rsd","//creativecommons.org/licenses/by-sa/3.0/","/w/index.php?title=Special:RecentChanges&feed=atom","//bits.wikimedia.org/en.wikipedia.org/load.php?debug=false&lang=en&modules=ext.gadget.DRN-wizard%2CReferenceTooltips%2Ccharinsert%2Cteahouse%7Cext.rtlcite%2Cwikihiero%7Cext.uls.nojs%7Cmediawiki.legacy.commonPrint%2Cshared%7Cmw.PopUpMediaTransform%7Cskins.vector&only=styles&skin=vector&*","//bits.wikimedia.org/en.wikipedia.org/load.php?debug=false&lang=en&modules=site&only=styles&skin=vector&*","//bits.wikimedia.org/en.wikipedia.org/load.php?debug=false&lang=en&modules=startup&only=scripts&skin=vector&*","//bits.wikimedia.org/geoiplookup","//meta.wikimedia.org","#mw-navigation","#p-search","/wiki/File:DL-Arabinose.svg","//upload.wikimedia.org/wikipedia/commons/thumb/8/8f/DL-Arabinose.svg/200px-DL-Arabinose.svg.png","/wiki/International_Union_of_Pure_and_Applied_Chemistry_nomenclature","/wiki/CAS_registry_number","http://www.commonchemistry.org/ChemicalDetail.aspx?ref=147-81-9","//upload.wikimedia.org/wikipedia/en/thumb/f/fb/Yes_check.svg/7px-Yes_check.svg.png","http://www.commonchemistry.org/ChemicalDetail.aspx?ref=10323-20-3","//upload.wikimedia.org/wikipedia/en/thumb/f/fb/Yes_check.svg/7px-Yes_check.svg.png","http://www.commonchemistry.org/ChemicalDetail.aspx?ref=5328-37-0","//upload.wikimedia.org/wikipedia/en/thumb/f/fb/Yes_check.svg/7px-Yes_check.svg.png","/wiki/PubChem","http://pubchem.ncbi.nlm.nih.gov/summary/summary.cgi?cid=5460291","/wiki/ChemSpider","http://www.chemspider.com/59687","//upload.wikimedia.org/wikipedia/en/thumb/f/fb/Yes_check.svg/7px-Yes_check.svg.png","/wiki/EC_number_(chemistry)","http://ecb.jrc.ec.europa.eu/esis/index.php?GENRE=ECNO&ENTREE=205-699-8","/wiki/ChEBI","https://www.ebi.ac.uk/chebi/searchId.do?chebiId=46983","//upload.wikimedia.org/wikipedia/en/thumb/f/fb/Yes_check.svg/7px-Yes_check.svg.png","/wiki/Jmol","http://chemapps.stolaf.edu/jmol/jmol.php?model=O%3DC%5BC%40%40H%5D%28O%29%5BC%40H%5D%28O%29%5BC%40H%5D%28O%29CO","http://chemapps.stolaf.edu/jmol/jmol.php?model=C%28%5BC%40H%5D%28%5BC%40H%5D%28%5BC%40%40H%5D%28C%3DO%29O%29O%29O%29O","/wiki/Simplified_molecular-input_line-entry_system","/wiki/International_Chemical_Identifier","//upload.wikimedia.org/wikipedia/en/thumb/f/fb/Yes_check.svg/7px-Yes_check.svg.png","//upload.wikimedia.org/wikipedia/en/thumb/f/fb/Yes_check.svg/7px-Yes_check.svg.png","#cite_note-1","/wiki/Molecular_formula","/wiki/Molar_mass","/wiki/Density","/wiki/Melting_point","/wiki/Solubility","/wiki/Water","/wiki/NFPA_704","/wiki/File:NFPA_704.svg","//upload.wikimedia.org/wikipedia/commons/thumb/6/6f/NFPA_704.svg/75px-NFPA_704.svg.png","/wiki/Pentose","/wiki/Ribose","/wiki/Xylose","/wiki/Lyxose","//upload.wikimedia.org/wikipedia/en/thumb/f/fb/Yes_check.svg/14px-Yes_check.svg.png","//en.wikipedia.org/w/index.php?title=Special:ComparePages&rev1=451895055&page2=Arabinose","/wiki/Wikipedia:WikiProject_Chemicals/Chembox_validation","//upload.wikimedia.org/wikipedia/en/thumb/f/fb/Yes_check.svg/10px-Yes_check.svg.png","//upload.wikimedia.org/wikipedia/commons/thumb/a/a2/X_mark.svg/10px-X_mark.svg.png","/wiki/Standard_state","/wiki/Wikipedia:Chemical_infobox#References","/wiki/Aldopentose","/wiki/Monosaccharide","/wiki/Carbon","/wiki/Atom","/wiki/Aldehyde","/wiki/Functional_group","/wiki/Glyceraldehyde","#cite_note-2","/wiki/Hemicellulose","/wiki/Pectin","/wiki/L-arabinose_operon","/wiki/Wohl_degradation","#cite_note-3","/wiki/File:Alpha-D-Arabinofuranose.svg","//upload.wikimedia.org/wikipedia/commons/thumb/3/3d/Alpha-D-Arabinofuranose.svg/100px-Alpha-D-Arabinofuranose.svg.png","/wiki/File:Beta-D-Arabinofuranose.svg","//upload.wikimedia.org/wikipedia/commons/thumb/d/d7/Beta-D-Arabinofuranose.svg/100px-Beta-D-Arabinofuranose.svg.png","/wiki/File:Alpha-D-Arabinopyranose.svg","//upload.wikimedia.org/wikipedia/commons/thumb/c/c3/Alpha-D-Arabinopyranose.svg/110px-Alpha-D-Arabinopyranose.svg.png","/wiki/File:Beta-D-Arabinopyranose.svg","//upload.wikimedia.org/wikipedia/commons/thumb/0/01/Beta-D-Arabinopyranose.svg/110px-Beta-D-Arabinopyranose.svg.png","#Etymology","#Use","#Notes","#References","/w/index.php?title=Arabinose&action=edit&section=1","/wiki/Gum_arabic","#cite_note-4","/w/index.php?title=Arabinose&action=edit&section=2","/w/index.php?title=Arabinose&action=edit&section=3","#cite_ref-2","/wiki/Glyceraldehyde","/w/index.php?title=Arabinose&action=edit&section=4","#cite_ref-1","/wiki/International_Standard_Book_Number","/wiki/Special:BookSources/0-8493-0462-8","#cite_ref-3","http://www.orgsyn.org/orgsyn/orgsyn/prepContent.asp?prep=CV3P0101","/wiki/Organic_Syntheses","#cite_ref-4","http://www.merriam-webster.com/dictionary/arabinose","/wiki/Template:Carbohydrates","/wiki/Template_talk:Carbohydrates","//en.wikipedia.org/w/index.php?title=Template:Carbohydrates&action=edit","/wiki/Carbohydrate","/wiki/Aldose","/wiki/Furanose","/wiki/Ketose","/wiki/Pyranose","/wiki/Anomer","/wiki/Cyclohexane_conformation","/wiki/Mutarotation","/wiki/Monosaccharide","/wiki/Diose","/wiki/Glycolaldehyde","/wiki/Triose","/wiki/Glyceraldehyde","/wiki/Dihydroxyacetone","/wiki/Tetrose","/wiki/Erythrose","/wiki/Threose","/wiki/Erythrulose","/wiki/Pentose","/wiki/Lyxose","/wiki/Ribose","/wiki/Xylose","/wiki/Deoxy_sugar","/wiki/Deoxyribose","/wiki/Ribulose","/wiki/Xylulose","/wiki/Hexose","/wiki/Aldohexose","/wiki/Allose","/wiki/Altrose","/wiki/Galactose","/wiki/Glucose","/wiki/Gulose","/wiki/Idose","/wiki/Mannose","/wiki/Talose","/wiki/Deoxy_sugar","/wiki/Fucose","/wiki/Fuculose","/wiki/Rhamnose","/wiki/Ketohexose","/wiki/Fructose","/wiki/Psicose","/wiki/Sorbose","/wiki/Tagatose","/wiki/Heptose","/wiki/Mannoheptulose","/wiki/Sedoheptulose","/wiki/Octose","/wiki/Nonose","/wiki/Neuraminic_acid","/wiki/Disaccharide","/wiki/Cellobiose","/wiki/Lactose","/wiki/Maltose","/wiki/Sucrose","/wiki/Trehalose","/wiki/Turanose","/wiki/Trisaccharide","/wiki/Maltotriose","/wiki/Melezitose","/wiki/Raffinose","/wiki/Tetrasaccharide","/wiki/Stachyose","/wiki/Oligosaccharide","/wiki/Acarbose","/wiki/Fructooligosaccharide","/wiki/Galactooligosaccharide","/wiki/Isomaltooligosaccharide","/wiki/Maltodextrin","/wiki/Mannan_oligosaccharide-based_nutritional_supplements","/wiki/Polysaccharide","/wiki/Beta-glucan","/wiki/Lentinan","/wiki/Sizofiran","/wiki/Zymosan","/wiki/Cellulose","/wiki/Chitin","/wiki/Dextrin","/wiki/Dextran","/wiki/Fructose","/wiki/Fructan","/wiki/Inulin","/wiki/Galactose","/wiki/Galactose","/wiki/Glucose","/wiki/Glucan","/wiki/Glycogen","/wiki/Levan_polysaccharide","/wiki/Mannan","/wiki/Starch","/wiki/Amylopectin","/wiki/Amylose","/wiki/Biochemistry","/wiki/Template:Metabolism","/wiki/Template:Carbohydrates","/wiki/Template:Alcohols","/wiki/Template:Glycoproteins","/wiki/Template:Glycosides","/wiki/Template:Lipids","/wiki/Template:Eicosanoids","/wiki/Template:Fatty_acids","/wiki/Template:Fatty-acid_metabolism_intermediates","/wiki/Template:Phospholipids","/wiki/Template:Sphingolipids","/wiki/Template:Cholesterol_and_steroid_intermediates","/wiki/Template:Nucleic_acids","/wiki/Template:Nucleobases,_nucleosides,_and_nucleotides","/wiki/Template:Nucleotide_metabolism_intermediates","/wiki/Template:Protein_topics","/wiki/Template:AminoAcids","/wiki/Template:Amino_acid_metabolism_intermediates","/wiki/Template:Tetrapyrroles","/wiki/Template:Heme_metabolism_intermediates","//en.wikipedia.org/w/index.php?title=Special:CentralAutoLogin/start&type=1x1&from=enwiki","http://en.wikipedia.org/w/index.php?title=Arabinose&oldid=559691170","/wiki/Help:Categories","/wiki/Category:Aldopentoses","/wiki/Category:Chemboxes_which_contain_changes_to_watched_fields","/w/index.php?title=Special:UserLogin&returnto=Arabinose&type=signup","/w/index.php?title=Special:UserLogin&returnto=Arabinose","/wiki/Arabinose","/wiki/Talk:Arabinose","#","/wiki/Arabinose","/w/index.php?title=Arabinose&action=edit","/w/index.php?title=Arabinose&action=history","#","/w/index.php","//bits.wikimedia.org/static-1.22wmf9/skins/vector/images/search-ltr.png?303-4","/wiki/Main_Page","/wiki/Main_Page","/wiki/Portal:Contents","/wiki/Portal:Featured_content","/wiki/Portal:Current_events","/wiki/Special:Random","//donate.wikimedia.org/wiki/Special:FundraiserRedirector?utm_source=donate&utm_medium=sidebar&utm_campaign=C13_en.wikipedia.org&uselang=en","/wiki/Help:Contents","/wiki/Wikipedia:About","/wiki/Wikipedia:Community_portal","/wiki/Special:RecentChanges","//en.wikipedia.org/wiki/Wikipedia:Contact_us","/wiki/Special:WhatLinksHere/Arabinose","/wiki/Special:RecentChangesLinked/Arabinose","/wiki/Wikipedia:File_Upload_Wizard","/wiki/Special:SpecialPages","/w/index.php?title=Arabinose&oldid=559691170","/w/index.php?title=Arabinose&action=info","//www.wikidata.org/wiki/Q407373","/w/index.php?title=Special:Cite&page=Arabinose&id=559691170","/w/index.php?title=Special:Book&bookcmd=book_creator&referer=Arabinose","/w/index.php?title=Special:Book&bookcmd=render_article&arttitle=Arabinose&oldid=559691170&writer=rl","/w/index.php?title=Arabinose&printable=yes","//ar.wikipedia.org/wiki/%D8%A3%D8%B1%D8%A7%D8%A8%D9%8A%D9%86%D9%88%D8%B2","//bg.wikipedia.org/wiki/%D0%90%D1%80%D0%B0%D0%B1%D0%B8%D0%BD%D0%BE%D0%B7%D0%B0","//ca.wikipedia.org/wiki/Arabinosa","//de.wikipedia.org/wiki/Arabinose","//es.wikipedia.org/wiki/Arabinosa","//eo.wikipedia.org/wiki/Arabinozo","//fa.wikipedia.org/wiki/%D8%A2%D8%B1%D8%A7%D8%A8%DB%8C%D9%86%D9%88%D8%B2","//fr.wikipedia.org/wiki/Arabinose","//fy.wikipedia.org/wiki/Arabinoaze","//gl.wikipedia.org/wiki/Arabinosa","//it.wikipedia.org/wiki/Arabinosio","//he.wikipedia.org/wiki/%D7%90%D7%A8%D7%90%D7%91%D7%99%D7%A0%D7%95%D7%96","//hu.wikipedia.org/wiki/Arabin%C3%B3z","//nl.wikipedia.org/wiki/Arabinose","//ja.wikipedia.org/wiki/%E3%82%A2%E3%83%A9%E3%83%93%E3%83%8E%E3%83%BC%E3%82%B9","//pl.wikipedia.org/wiki/Arabinoza","//pt.wikipedia.org/wiki/Arabinose","//ru.wikipedia.org/wiki/%D0%90%D1%80%D0%B0%D0%B1%D0%B8%D0%BD%D0%BE%D0%B7%D0%B0","//sr.wikipedia.org/wiki/Arabinoza","//sh.wikipedia.org/wiki/Arabinoza","//fi.wikipedia.org/wiki/Arabinoosi","//sv.wikipedia.org/wiki/Arabinos","//tr.wikipedia.org/wiki/Arabinoz","//uk.wikipedia.org/wiki/%D0%90%D1%80%D0%B0%D0%B1%D1%96%D0%BD%D0%BE%D0%B7%D0%B0","//zh.wikipedia.org/wiki/%E9%98%BF%E6%8B%89%E4%BC%AF%E7%B3%96","#","//www.wikidata.org/wiki/Q407373#sitelinks-wikipedia","//en.wikipedia.org/wiki/Wikipedia:Text_of_Creative_Commons_Attribution-ShareAlike_3.0_Unported_License","//creativecommons.org/licenses/by-sa/3.0/","//wikimediafoundation.org/wiki/Terms_of_Use","//wikimediafoundation.org/wiki/Privacy_policy","//www.wikimediafoundation.org/","//wikimediafoundation.org/wiki/Privacy_policy","/wiki/Wikipedia:About","/wiki/Wikipedia:General_disclaimer","//en.wikipedia.org/wiki/Wikipedia:Contact_us","//en.m.wikipedia.org/wiki/Arabinose","//wikimediafoundation.org/","//bits.wikimedia.org/images/wikimedia-button.png","//www.mediawiki.org/","//bits.wikimedia.org/static-1.22wmf9/skins/common/images/poweredby_mediawiki_88x31.png","//bits.wikimedia.org/en.wikipedia.org/load.php?debug=false&lang=en&modules=site&only=scripts&skin=vector&*"],"instances":[],"pdf":[],"categories":["Aldopentoses"],"headings":["Etymology","Use","Notes","References"],"image":["//upload.wikimedia.org/wikipedia/commons/thumb/8/8f/DL-Arabinose.svg/200px-DL-Arabinose.svg.png","//upload.wikimedia.org/wikipedia/en/thumb/f/fb/Yes_check.svg/7px-Yes_check.svg.png","//upload.wikimedia.org/wikipedia/en/thumb/f/fb/Yes_check.svg/7px-Yes_check.svg.png","//upload.wikimedia.org/wikipedia/en/thumb/f/fb/Yes_check.svg/7px-Yes_check.svg.png","//upload.wikimedia.org/wikipedia/en/thumb/f/fb/Yes_check.svg/7px-Yes_check.svg.png","//upload.wikimedia.org/wikipedia/en/thumb/f/fb/Yes_check.svg/7px-Yes_check.svg.png","//upload.wikimedia.org/wikipedia/en/thumb/f/fb/Yes_check.svg/7px-Yes_check.svg.png","//upload.wikimedia.org/wikipedia/en/thumb/f/fb/Yes_check.svg/7px-Yes_check.svg.png","//upload.wikimedia.org/wikipedia/commons/thumb/6/6f/NFPA_704.svg/75px-NFPA_704.svg.png","//upload.wikimedia.org/wikipedia/en/thumb/f/fb/Yes_check.svg/14px-Yes_check.svg.png","//upload.wikimedia.org/wikipedia/en/thumb/f/fb/Yes_check.svg/10px-Yes_check.svg.png","//upload.wikimedia.org/wikipedia/commons/thumb/a/a2/X_mark.svg/10px-X_mark.svg.png","//upload.wikimedia.org/wikipedia/commons/thumb/3/3d/Alpha-D-Arabinofuranose.svg/100px-Alpha-D-Arabinofuranose.svg.png","//upload.wikimedia.org/wikipedia/commons/thumb/d/d7/Beta-D-Arabinofuranose.svg/100px-Beta-D-Arabinofuranose.svg.png","//upload.wikimedia.org/wikipedia/commons/thumb/c/c3/Alpha-D-Arabinopyranose.svg/110px-Alpha-D-Arabinopyranose.svg.png","//upload.wikimedia.org/wikipedia/commons/thumb/0/01/Beta-D-Arabinopyranose.svg/110px-Beta-D-Arabinopyranose.svg.png","//en.wikipedia.org/w/index.php?title=Special:CentralAutoLogin/start&type=1x1&from=enwiki","//bits.wikimedia.org/static-1.22wmf9/skins/vector/images/search-ltr.png?303-4","//bits.wikimedia.org/images/wikimedia-button.png","//bits.wikimedia.org/static-1.22wmf9/skins/common/images/poweredby_mediawiki_88x31.png"],"tags":[],"members":[],"related":["Ribose","Xylose","Lyxose","Pentose","Aldopentose","Monosaccharide","Carbon","Atom","Aldehyde","Functional_group","Glyceraldehyde","Glyceraldehyde","Hemicellulose","Pectin","L-arabinose_operon","Wohl_degradation","Gum_arabic"]}