{"cursor":"21256","size":14,"audio":[],"currentlang":"en","article":"{{Chembox\n| verifiedrevid = 451133444 ImageFileL1 = Osmium-tetroxide-2D-dimensions.png\n| ImageSizeL1 = 130 px ImageNameL1 = Stick model osmium tetroxide ImageFileR1 =\n| Osmium-tetroxide-ED-3D-balls-A.png ImageNameR1 = Ball and stick model of\n| osmium tetroxide ImageFile2 = Osmium tetroxide 0.1 gram in ampoule.jpg\n| ImageSize2 = 300px PIN = Osmium tetraoxide SystematicName = Tetraoxoosmium\n| OtherNames = Osmiumtetroxide Section1 = {{Chembox Identifiers InChI1 = 1/4O.Os/rO4Os/c1-\n| 5(2,3)4 InChIKey1 = VUVGYHUDAICLFK-TYHKRQCIAE CASNo = 20816-12-0 CASNo_Ref =\n| PubChem = 30318 PubChem_Ref = PubChem1 = 56370778 PubChem1_Comment =\n| (monopotassiate) PubChem1_Ref = PubChem2 = 75811001 PubChem2_Comment =\n| (monoquinuclidiniate) PubChem2_Ref = PubChem3 = 53113021 PubChem3_Comment =\n| (monotemediate) PubChem3_Ref = ChemSpiderID = 28158 ChemSpiderID_Ref = EINECS\n| = 244-058-7 UNNumber = UN 2471 MeSHName = Osmium+tetroxide RTECS = RN1140000\n| StdInChI_Ref = StdInChI = 1S/4O.Os StdInChIKey_Ref = StdInChIKey = VUVGYHUDAICLFK-UHFFFAOYSA-\n| N SMILES = O=[Os](=O)(=O)=O InChI = 1S/4O.Os InChIKey = VUVGYHUDAICLFK-UHFFFAOYSA-\n| N}} Section2 = {{Chembox Properties Formula = OsO 4 MolarMass =\n| 254.23 g/mol Appearance = white volatile solid Odor = acrid, chlorine-like\n| Density = 4.9 g/cm 3 MeltingPt = 40.25 °C BoilingPt =\n| 129.7 °C Solubility = 5.70 g/100 mL (10 °C)  6.23 g/100 mL (25 °C)\n| SolubleOther = 375 g/100 mL (CCl 4)  soluble in most organic\n| solvents, ammonium hydroxide, phosphorus oxychloride pKa =\n}}\n| Section3 = {{Chembox Structure CrystalStruct = Monoclinic, mS20 SpaceGroup =\n| C2/c; a = 0.4515 nm, b = 0.52046 nm, c = 0.80838 nm, α = 77.677°, β = 73.784°,\n| γ = 64.294°\n }}\n| Section7 = {{Chembox Hazards ExternalMSDS =\n| [http://www.inchem.org/documents/icsc/icsc/eics0528.htm ICSC 0528] EUIndex =\n| 076-001-00-5 EUClass = Very toxic ('T+') Corrosive ('C') RPhrases = ,\n| SPhrases = , , , NFPA-H = 4 NFPA-F = 0 NFPA-R = 1 NFPA-O = OX\n }}\n| Section8 = {{Chembox Related OtherAnions = OtherCations = Ruthenium tetroxide\n| OtherFunctn = Osmium(IV) oxide Function = osmium oxides OtherCpds =\n }} }}\n\n'Osmium(VIII) oxide' (also called 'osmium tetroxide') is the chemical compound\nwith the formula OsO 4. The compound is noteworthy for its many uses,\ndespite the rarity of osmium. It also has a number of interesting properties,\none being that the solid is volatile. The compound is colourless, but most\nsamples appear yellow. Gregory Girolami \"Osmium weighs in\" Nature Chemistry\n2012, vol. 4, 954. \n","linknr":452,"url":"Osmium_tetroxide","recorded":1363143445,"links":["/w/index.php?title=Osmium_tetroxide&action=edit","/w/index.php?title=Osmium_tetroxide&action=edit","//en.wikipedia.org/apple-touch-icon.png","//bits.wikimedia.org/favicon/wikipedia.ico","/w/opensearch_desc.php","//en.wikipedia.org/w/api.php?action=rsd","//creativecommons.org/licenses/by-sa/3.0/","/w/index.php?title=Special:RecentChanges&feed=atom","//bits.wikimedia.org/en.wikipedia.org/load.php?debug=false&lang=en&modules=ext.gadget.DRN-wizard%2CReferenceTooltips%2Ccharinsert%2Cteahouse%7Cext.wikihiero%7Cmediawiki.legacy.commonPrint%2Cshared%7Cmw.PopUpMediaTransform%7Cskins.vector&only=styles&skin=vector&*","//bits.wikimedia.org/en.wikipedia.org/load.php?debug=false&lang=en&modules=site&only=styles&skin=vector&*","//bits.wikimedia.org/en.wikipedia.org/load.php?debug=false&lang=en&modules=startup&only=scripts&skin=vector&*","//bits.wikimedia.org/geoiplookup","//meta.wikimedia.org","#mw-head","#p-search","/wiki/File:Osmium-tetroxide-2D-dimensions.png","//upload.wikimedia.org/wikipedia/commons/thumb/a/ac/Osmium-tetroxide-2D-dimensions.png/130px-Osmium-tetroxide-2D-dimensions.png","/wiki/File:Osmium-tetroxide-ED-3D-balls-A.png","//upload.wikimedia.org/wikipedia/commons/thumb/4/4a/Osmium-tetroxide-ED-3D-balls-A.png/100px-Osmium-tetroxide-ED-3D-balls-A.png","/wiki/File:Osmium_tetroxide_0.1_gram_in_ampoule.jpg","//upload.wikimedia.org/wikipedia/commons/thumb/2/2c/Osmium_tetroxide_0.1_gram_in_ampoule.jpg/300px-Osmium_tetroxide_0.1_gram_in_ampoule.jpg","/wiki/Preferred_IUPAC_name","/wiki/IUPAC_nomenclature","/wiki/CAS_registry_number","http://www.commonchemistry.org/ChemicalDetail.aspx?ref=20816-12-0","//upload.wikimedia.org/wikipedia/en/thumb/f/fb/Yes_check.svg/7px-Yes_check.svg.png","/wiki/PubChem","http://pubchem.ncbi.nlm.nih.gov/summary/summary.cgi?cid=30318","//upload.wikimedia.org/wikipedia/en/thumb/f/fb/Yes_check.svg/7px-Yes_check.svg.png","http://pubchem.ncbi.nlm.nih.gov/summary/summary.cgi?cid=56370778","//upload.wikimedia.org/wikipedia/en/thumb/f/fb/Yes_check.svg/7px-Yes_check.svg.png","http://pubchem.ncbi.nlm.nih.gov/summary/summary.cgi?cid=75811001","//upload.wikimedia.org/wikipedia/en/thumb/f/fb/Yes_check.svg/7px-Yes_check.svg.png","http://pubchem.ncbi.nlm.nih.gov/summary/summary.cgi?cid=53113021","/wiki/ChemSpider","http://www.chemspider.com/28158","//upload.wikimedia.org/wikipedia/en/thumb/f/fb/Yes_check.svg/7px-Yes_check.svg.png","/wiki/EC_number_(chemistry)","http://esis.jrc.ec.europa.eu/lib/einecs_IS_reponse.php?genre=ECNO&entree=244-058-7","/wiki/UN_number","/wiki/Medical_Subject_Headings","http://www.nlm.nih.gov/cgi/mesh/2007/MB_cgi?mode=&term=Osmium+tetroxide","/wiki/RTECS","/wiki/Jmol","http://chemapps.stolaf.edu/jmol/jmol.php?model=O%3D%5BOs%5D%28%3DO%29%28%3DO%29%3DO","/wiki/Simplified_molecular-input_line-entry_system","/wiki/International_Chemical_Identifier","//upload.wikimedia.org/wikipedia/en/thumb/f/fb/Yes_check.svg/7px-Yes_check.svg.png","//upload.wikimedia.org/wikipedia/en/thumb/f/fb/Yes_check.svg/7px-Yes_check.svg.png","/wiki/Chemical_formula","/wiki/Molar_mass","/wiki/Odor","/wiki/Density","#cite_note-1","/wiki/Melting_point","/wiki/Boiling_point","/wiki/Solubility","/wiki/Water","/wiki/Solubility","/wiki/Carbon_tetrachloride","/wiki/Ammonium_hydroxide","/wiki/Phosphorus_oxychloride","/wiki/Crystal_structure","/wiki/Pearson_symbol","/wiki/Space_group","#cite_note-s1-2","/wiki/MSDS","http://www.inchem.org/documents/icsc/icsc/eics0528.htm","/wiki/Dangerous_Substances_Directive_(67/548/EEC)","/wiki/List_of_R-phrases","/wiki/R26/27/28:_Very_toxic_by_inhalation,_in_contact_with_skin_and_if_swallowed","/wiki/R34:_Causes_burns","/wiki/List_of_S-phrases","/wiki/(S1/2):_Keep_locked_up_and_out_of_the_reach_of_children","/wiki/S7/9:_Keep_container_tightly_closed_and_in_a_well-ventilated_place","/wiki/S26:_In_case_of_contact_with_eyes,_rinse_immediately_with_plenty_of_water_and_seek_medical_advice","/wiki/S45:_In_case_of_accident_or_if_you_feel_unwell_seek_medical_advice_immediately_(show_the_label_where_possible)","/wiki/NFPA_704","/wiki/File:NFPA_704.svg","//upload.wikimedia.org/wikipedia/commons/thumb/6/6f/NFPA_704.svg/75px-NFPA_704.svg.png","/wiki/Ion","/wiki/Ruthenium_tetroxide","/wiki/Osmium","/wiki/Oxide","/wiki/Osmium(IV)_oxide","//upload.wikimedia.org/wikipedia/en/thumb/f/fb/Yes_check.svg/14px-Yes_check.svg.png","//en.wikipedia.org/w/index.php?title=Special:ComparePages&rev1=451133444&page2=Osmium+tetroxide","/wiki/Wikipedia:WikiProject_Chemicals/Chembox_validation","//upload.wikimedia.org/wikipedia/en/thumb/f/fb/Yes_check.svg/10px-Yes_check.svg.png","//upload.wikimedia.org/wikipedia/commons/thumb/a/a2/X_mark.svg/10px-X_mark.svg.png","/wiki/Standard_state","/wiki/Wikipedia:Chemical_infobox#References","/wiki/Chemical_compound","/wiki/Chemical_formula","/wiki/Osmium","/wiki/Volatility_(chemistry)","#cite_note-3","#Physical_properties","#Structure_and_electron_configuration","#Synthesis","#Reactions","#Oxidation_of_alkenes","#Coordination_chemistry","#Oxofluorides","#Uses","#Organic_synthesis","#Biological_staining","#Polymer_staining","#Osmeth","#Osmium_ore_refining","#Buckminsterfullerene_adduct","#Safety_considerations","#References","#External_links","/w/index.php?title=Osmium_tetroxide&action=edit&section=1","/wiki/File:OsO4structure.png","//upload.wikimedia.org/wikipedia/commons/thumb/e/e4/OsO4structure.png/220px-OsO4structure.png","/wiki/File:OsO4structure.png","//bits.wikimedia.org/static-1.21wmf10/skins/common/images/magnify-clip.png","#cite_note-s1-2","/wiki/Monoclinic","#cite_note-s1-2","#cite_note-niosh-4","/wiki/Chlorine","/wiki/Chemical_element","/wiki/Greek_language","/wiki/Sublimation_(chemistry)","/wiki/Room_temperature","#cite_note-thompson-5","#cite_note-6","/wiki/Osmium_dioxide","#cite_note-7","/wiki/Carbon_tetrachloride","/w/index.php?title=Osmium_tetroxide&action=edit&section=2","/wiki/Osmium","/wiki/Oxidation_number","/wiki/Transition_metal","/wiki/Covalent","/wiki/Ionization_energy","/wiki/Valence_shell","/wiki/Oxide","/wiki/16-Electron_Complexes#16e_complexes","/wiki/Permanganate","/wiki/Chromate","/w/index.php?title=Osmium_tetroxide&action=edit&section=3","#cite_note-h.26s-8","/w/index.php?title=Osmium_tetroxide&action=edit&section=4","/w/index.php?title=Osmium_tetroxide&action=edit&section=5","/wiki/Alkoxide","/wiki/Cycloaddition","/wiki/Diol#Vicinal_diols","/wiki/Cis-trans_isomerism","/wiki/File:Dihydroxylation_with_OsO4.png","//upload.wikimedia.org/wikipedia/commons/thumb/3/31/Dihydroxylation_with_OsO4.png/700px-Dihydroxylation_with_OsO4.png","/wiki/Catalysis","/wiki/Hydrogen_peroxide","/wiki/N-Methylmorpholine_N-oxide","/wiki/Upjohn_dihydroxylation","/wiki/Potassium_ferricyanide","#cite_note-9","/wiki/Amine","/wiki/Pyridine","/wiki/Adduct","/wiki/Sharpless_asymmetric_dihydroxylation","#cite_note-catalysis-10","#cite_note-stain-11","/w/index.php?title=Osmium_tetroxide&action=edit&section=6","/wiki/Lewis_acid","#cite_note-12","/wiki/Lewis_base","/wiki/Amine","/wiki/Tert-Butylamine","/wiki/Ammonia","/wiki/Nitrido_complex","/wiki/Tert-butanol","/wiki/Catalysis","/wiki/Hydrogenation","/wiki/Carbon_monoxide","/wiki/Triosmium_dodecacarbonyl","#cite_note-h.26s-8","/w/index.php?title=Osmium_tetroxide&action=edit&section=7","/wiki/Hydrogen_fluoride","#cite_note-13","#cite_note-chem-14","#cite_note-h.26s-8","/w/index.php?title=Osmium_tetroxide&action=edit&section=8","/w/index.php?title=Osmium_tetroxide&action=edit&section=9","/wiki/Alkene","/wiki/Hydroxyl","/wiki/Syn_addition","/wiki/Upjohn_dihydroxylation","/wiki/Sharpless_asymmetric_dihydroxylation","/wiki/Sharpless_oxyamination","/wiki/Sodium_periodate","/wiki/Alkene","/wiki/Lemieux-Johnson_oxidation","/wiki/Ozonolysis","#cite_note-15","/wiki/File:Isosteviol-OsO4.gif","//upload.wikimedia.org/wikipedia/commons/9/9f/Isosteviol-OsO4.gif","/w/index.php?title=Osmium_tetroxide&action=edit&section=10","/wiki/File:OsStaining.jpg","//upload.wikimedia.org/wikipedia/commons/thumb/1/15/OsStaining.jpg/220px-OsStaining.jpg","/wiki/File:OsStaining.jpg","//bits.wikimedia.org/static-1.21wmf10/skins/common/images/magnify-clip.png","/wiki/Staining","/wiki/Transmission_electron_microscopy","#cite_note-Bozzola-16","/wiki/Lipid","/wiki/Scanning_electron_microscopy","/wiki/Sputter_coating","/wiki/Plasma_membrane","/wiki/Phospholipid","/wiki/Protoplasm","#cite_note-stain-11","#cite_note-17","/wiki/Osmium_tetroxide#Safety_considerations","/wiki/File:Resin-Embedded_Transmission_Electron_Microscope_Sample.jpg","//upload.wikimedia.org/wikipedia/commons/thumb/f/fb/Resin-Embedded_Transmission_Electron_Microscope_Sample.jpg/220px-Resin-Embedded_Transmission_Electron_Microscope_Sample.jpg","/wiki/File:Resin-Embedded_Transmission_Electron_Microscope_Sample.jpg","//bits.wikimedia.org/static-1.21wmf10/skins/common/images/magnify-clip.png","/w/index.php?title=Osmium_tetroxide&action=edit&section=11","/wiki/Copolymers","/wiki/Microstructure","/wiki/Polybutadiene","/wiki/Transmission_electron_microscopy","/w/index.php?title=Osmium_tetroxide&action=edit&section=12","/wiki/Hexamine","/wiki/Tetrahydrofuran","/wiki/Buffer_solution","/wiki/Solution","#cite_note-18","/w/index.php?title=Osmium_tetroxide&action=edit&section=13","/wiki/Chlorine","/wiki/NaOH","/wiki/Ammonium_chloride","/wiki/Hydrogen","#cite_note-thompson-5","/w/index.php?title=Osmium_tetroxide&action=edit&section=14","/wiki/Buckminsterfullerene","/wiki/Carbon","/wiki/Allotrope","/wiki/Adduct","/wiki/Butyl","/wiki/Pyridine","/wiki/X-ray_crystallography","#cite_note-19","/w/index.php?title=Osmium_tetroxide&action=edit&section=15","/wiki/File:Label_for_ampoules_of_OsO4.jpg","//upload.wikimedia.org/wikipedia/commons/thumb/7/7a/Label_for_ampoules_of_OsO4.jpg/300px-Label_for_ampoules_of_OsO4.jpg","/wiki/File:Label_for_ampoules_of_OsO4.jpg","//bits.wikimedia.org/static-1.21wmf10/skins/common/images/magnify-clip.png","/wiki/Pulmonary_edema","/wiki/Cornea","#cite_note-niosh-4","#cite_note-stain-11","#cite_note-20","/wiki/New_Scientist","#cite_note-21","/w/index.php?title=Osmium_tetroxide&action=edit&section=16","#cite_ref-1","http://www.inchem.org/documents/icsc/icsc/eics0528.htm","http://www.inchem.org/documents/icsc/icsc/eics0528.htm","#cite_ref-s1_2-0","#cite_ref-s1_2-1","#cite_ref-s1_2-2","/wiki/Digital_object_identifier","http://dx.doi.org/10.1107%2FS056774087600530X","#cite_ref-3","/wiki/Digital_object_identifier","http://dx.doi.org/10.1038%2Fnchem.1479","#cite_ref-niosh_4-0","#cite_ref-niosh_4-1","http://www.cdc.gov/niosh/idlh/20816120.html","http://www.cdc.gov/niosh/idlh/20816120.html","#cite_ref-thompson_5-0","#cite_ref-thompson_5-1","http://www.chm.bris.ac.uk/motm/oso4/oso4h.htm","/wiki/Bristol_University","http://www.chm.bris.ac.uk/motm/oso4/oso4h.htm","#cite_ref-6","http://books.google.com/books?id=Nd3vAAAAMAAJ","/wiki/International_Standard_Book_Number","/wiki/Special:BookSources/978-0-8053-0247-9","http://books.google.com/books?id=Nd3vAAAAMAAJ","#cite_ref-7","http://books.google.com/books?id=U3MWRONWAmMC","/wiki/International_Standard_Book_Number","/wiki/Special:BookSources/978-81-265-1338-3","http://books.google.com/books?id=U3MWRONWAmMC","#cite_ref-h.26s_8-0","#cite_ref-h.26s_8-1","#cite_ref-h.26s_8-2","/wiki/International_Standard_Book_Number","/wiki/Special:BookSources/978-0130399137","#cite_ref-9","/wiki/Tetrahedron_Letters","/wiki/Digital_object_identifier","http://dx.doi.org/10.1016%2F0040-4039%2891%2980601-2","#cite_ref-catalysis_10-0","/wiki/Angewandte_Chemie_International_Edition","/wiki/Digital_object_identifier","http://dx.doi.org/10.1002%2Fanie.199510591","#cite_ref-stain_11-0","#cite_ref-stain_11-1","#cite_ref-stain_11-2","http://books.google.com/?id=nfsVMH8it1kC","/wiki/International_Standard_Book_Number","/wiki/Special:BookSources/0-521-63287-0","http://books.google.com/?id=nfsVMH8it1kC","#cite_ref-12","/wiki/Norman_Greenwood","/wiki/Butterworth%E2%80%93Heinemann","/wiki/International_Standard_Book_Number","/wiki/Special:BookSources/0080379419","#cite_ref-13","/wiki/Journal_of_the_American_Chemical_Society","/wiki/Digital_object_identifier","http://dx.doi.org/10.1021%2Fja00077a029","#cite_ref-chem_14-0","/wiki/International_Standard_Book_Number","/wiki/Special:BookSources/0-7514-0413-6","#cite_ref-15","/wiki/Journal_of_Organic_Chemistry","/wiki/Digital_object_identifier","http://dx.doi.org/10.1021%2Fjo981238x","#cite_ref-Bozzola_16-0","http://books.google.com/?id=RqSMzR-IXk0C&pg=PA21","/wiki/International_Standard_Book_Number","/wiki/Special:BookSources/978-0-7637-0192-5","http://books.google.com/?id=RqSMzR-IXk0C&pg=PA21","#cite_ref-17","/wiki/Digital_object_identifier","http://dx.doi.org/10.1002%2Fjemt.20577","/wiki/PubMed_Identifier","//www.ncbi.nlm.nih.gov/pubmed/18320578","#cite_ref-18","http://www.histosearch.com/histonet/Nov00A/Re.quotDisposalquotofOsmi.html","http://www.histosearch.com/histonet/Nov00A/Re.quotDisposalquotofOsmi.html","#cite_ref-19","/wiki/Science_(journal)","/wiki/Digital_object_identifier","http://dx.doi.org/10.1126%2Fscience.252.5003.312","/wiki/PubMed_Identifier","//www.ncbi.nlm.nih.gov/pubmed/17769278","#cite_ref-20","http://news.bbc.co.uk/1/hi/uk/3603961.stm","/wiki/BBC_News","http://news.bbc.co.uk/1/hi/uk/3603961.stm","#cite_ref-21","http://technology.newscientist.com/article/dn4863-experts-divided-over-poison-bomb-claim.html","/wiki/New_Scientist","http://technology.newscientist.com/article/dn4863-experts-divided-over-poison-bomb-claim.html","/w/index.php?title=Osmium_tetroxide&action=edit&section=17","http://www.inchem.org/documents/icsc/icsc/eics0528.htm","http://www.cdc.gov/niosh/npg/npgd0473.html","http://www.cdc.gov/niosh/topics/osmium-tetroxide/","http://news.bbc.co.uk/1/hi/uk/3603961.stm","http://news.bbc.co.uk/1/hi/uk/3604857.stm","http://www.chm.bris.ac.uk/motm/oso4/oso4h.htm","http://www.organic-chemistry.org/chemicals/oxidations/osmiumtetroxide.shtm","/wiki/Template:Osmium_compounds","/wiki/Template_talk:Osmium_compounds","//en.wikipedia.org/w/index.php?title=Template:Osmium_compounds&action=edit","/wiki/Osmium","/wiki/Triosmium_dodecacarbonyl","/wiki/Decacarbonyldihydridotriosmium","/wiki/Osmium_borides","/wiki/Osmium_borides","/wiki/Osmium_borides","/wiki/Organoosmium_chemistry","/wiki/Osmocene","/wiki/Osmium_dioxide","/wiki/Osmium(IV)_chloride","/wiki/Osmium_hexafluoride","http://en.wikipedia.org/w/index.php?title=Osmium_tetroxide&oldid=539776848","/wiki/Help:Categories","/wiki/Category:Osmium_compounds","/wiki/Category:Oxides","/wiki/Category:Oxidizing_agents","/wiki/Category:Staining_dyes","/wiki/Category:Electron_microscopy_stains","/w/index.php?title=Special:UserLogin&returnto=Osmium+tetroxide&type=signup","/w/index.php?title=Special:UserLogin&returnto=Osmium+tetroxide","/wiki/Osmium_tetroxide","/wiki/Talk:Osmium_tetroxide","#","/wiki/Osmium_tetroxide","/w/index.php?title=Osmium_tetroxide&action=edit","/w/index.php?title=Osmium_tetroxide&action=history","#","/w/index.php","//bits.wikimedia.org/static-1.21wmf11/skins/vector/images/search-ltr.png?303-4","/wiki/Main_Page","/wiki/Main_Page","/wiki/Portal:Contents","/wiki/Portal:Featured_content","/wiki/Portal:Current_events","/wiki/Special:Random","//donate.wikimedia.org/wiki/Special:FundraiserRedirector?utm_source=donate&utm_medium=sidebar&utm_campaign=C13_en.wikipedia.org&uselang=en","/wiki/Help:Contents","/wiki/Wikipedia:About","/wiki/Wikipedia:Community_portal","/wiki/Special:RecentChanges","/wiki/Wikipedia:Contact_us","/wiki/Special:WhatLinksHere/Osmium_tetroxide","/wiki/Special:RecentChangesLinked/Osmium_tetroxide","/wiki/Wikipedia:File_Upload_Wizard","/wiki/Special:SpecialPages","/w/index.php?title=Osmium_tetroxide&oldid=539776848","/w/index.php?title=Osmium_tetroxide&action=info","/w/index.php?title=Special:Cite&page=Osmium_tetroxide&id=539776848","/w/index.php?title=Special:Book&bookcmd=book_creator&referer=Osmium+tetroxide","/w/index.php?title=Special:Book&bookcmd=render_article&arttitle=Osmium+tetroxide&oldid=539776848&writer=rl","/w/index.php?title=Osmium_tetroxide&printable=yes","//ar.wikipedia.org/wiki/%D8%A3%D9%83%D8%B3%D9%8A%D8%AF_%D8%A7%D9%84%D8%A3%D9%88%D8%B2%D9%85%D9%8A%D9%88%D9%85_%D8%A7%D9%84%D8%AB%D9%85%D8%A7%D9%86%D9%8A","//cs.wikipedia.org/wiki/Oxid_osmi%C4%8Del%C3%BD","//de.wikipedia.org/wiki/Osmiumtetroxid","//es.wikipedia.org/wiki/Tetr%C3%B3xido_de_osmio","//fa.wikipedia.org/wiki/%D8%A7%D8%B3%D9%85%DB%8C%D9%85_%D8%AA%D8%AA%D8%B1%D8%A7%DA%A9%D8%B3%DB%8C%D8%AF","//fr.wikipedia.org/wiki/T%C3%A9troxyde_d%27osmium","//ga.wikipedia.org/wiki/Teatrocsa%C3%ADd_oismiam","//ko.wikipedia.org/wiki/%EC%82%AC%EC%82%B0%ED%99%94_%EC%98%A4%EC%8A%A4%EB%AE%B4","//it.wikipedia.org/wiki/Tetrossido_di_osmio","//he.wikipedia.org/wiki/%D7%90%D7%95%D7%A1%D7%9E%D7%99%D7%95%D7%9D_%D7%90%D7%A8%D7%91%D7%A2-%D7%97%D7%9E%D7%A6%D7%A0%D7%99","//lt.wikipedia.org/wiki/Osmio_tetraoksidas","//hu.wikipedia.org/wiki/Ozmium-tetroxid","//nl.wikipedia.org/wiki/Osmium(VIII)oxide","//ja.wikipedia.org/wiki/%E9%85%B8%E5%8C%96%E3%82%AA%E3%82%B9%E3%83%9F%E3%82%A6%E3%83%A0(VIII)","//pt.wikipedia.org/wiki/Tetr%C3%B3xido_de_%C3%B3smio","//ru.wikipedia.org/wiki/%D0%9E%D0%BA%D1%81%D0%B8%D0%B4_%D0%BE%D1%81%D0%BC%D0%B8%D1%8F(VIII)","//sk.wikipedia.org/wiki/Oxid_osmi%C4%8Del%C3%BD","//fi.wikipedia.org/wiki/Osmiumtetroksidi","//sv.wikipedia.org/wiki/Osmiumtetroxid","//uk.wikipedia.org/wiki/%D0%9E%D0%BA%D1%81%D0%B8%D0%B4_%D0%BE%D1%81%D0%BC%D1%96%D1%8E","//zh.wikipedia.org/wiki/%E5%9B%9B%E6%B0%A7%E5%8C%96%E9%94%87","//www.wikidata.org/wiki/Special:ItemByTitle/enwiki/Osmium tetroxide","//en.wikipedia.org/wiki/Wikipedia:Text_of_Creative_Commons_Attribution-ShareAlike_3.0_Unported_License","//creativecommons.org/licenses/by-sa/3.0/","//wikimediafoundation.org/wiki/Terms_of_Use","//www.wikimediafoundation.org/","//en.wikipedia.org/wiki/Wikipedia:Contact_us","//wikimediafoundation.org/wiki/Privacy_policy","/wiki/Wikipedia:About","/wiki/Wikipedia:General_disclaimer","http://en.m.wikipedia.org/wiki/Osmium_tetroxide","//wikimediafoundation.org/","//bits.wikimedia.org/images/wikimedia-button.png","//www.mediawiki.org/","//bits.wikimedia.org/static-1.21wmf11/skins/common/images/poweredby_mediawiki_88x31.png","//bits.wikimedia.org/en.wikipedia.org/load.php?debug=false&lang=en&modules=skins.vector&only=scripts&skin=vector&*","/w/index.php?title=MediaWiki:Gadget-ReferenceTooltips.js&action=raw&ctype=text/javascript&508635914","//bits.wikimedia.org/en.wikipedia.org/load.php?debug=false&lang=en&modules=site&only=scripts&skin=vector&*"],"instances":["chemistry","chemistry"],"pdf":[],"categories":["Osmium compounds","Oxides","Oxidizing agents","Staining dyes","Electron microscopy stains"],"headings":["Physical properties","Structure and electron configuration","Synthesis","Reactions","Uses","Safety considerations","References","External links"],"image":["//upload.wikimedia.org/wikipedia/commons/thumb/a/ac/Osmium-tetroxide-2D-dimensions.png/130px-Osmium-tetroxide-2D-dimensions.png","//upload.wikimedia.org/wikipedia/commons/thumb/4/4a/Osmium-tetroxide-ED-3D-balls-A.png/100px-Osmium-tetroxide-ED-3D-balls-A.png","//upload.wikimedia.org/wikipedia/commons/thumb/2/2c/Osmium_tetroxide_0.1_gram_in_ampoule.jpg/300px-Osmium_tetroxide_0.1_gram_in_ampoule.jpg","//upload.wikimedia.org/wikipedia/en/thumb/f/fb/Yes_check.svg/7px-Yes_check.svg.png","//upload.wikimedia.org/wikipedia/en/thumb/f/fb/Yes_check.svg/7px-Yes_check.svg.png","//upload.wikimedia.org/wikipedia/en/thumb/f/fb/Yes_check.svg/7px-Yes_check.svg.png","//upload.wikimedia.org/wikipedia/en/thumb/f/fb/Yes_check.svg/7px-Yes_check.svg.png","//upload.wikimedia.org/wikipedia/en/thumb/f/fb/Yes_check.svg/7px-Yes_check.svg.png","//upload.wikimedia.org/wikipedia/en/thumb/f/fb/Yes_check.svg/7px-Yes_check.svg.png","//upload.wikimedia.org/wikipedia/en/thumb/f/fb/Yes_check.svg/7px-Yes_check.svg.png","//upload.wikimedia.org/wikipedia/commons/thumb/6/6f/NFPA_704.svg/75px-NFPA_704.svg.png","//upload.wikimedia.org/wikipedia/en/thumb/f/fb/Yes_check.svg/14px-Yes_check.svg.png","//upload.wikimedia.org/wikipedia/en/thumb/f/fb/Yes_check.svg/10px-Yes_check.svg.png","//upload.wikimedia.org/wikipedia/commons/thumb/a/a2/X_mark.svg/10px-X_mark.svg.png","//upload.wikimedia.org/wikipedia/commons/thumb/e/e4/OsO4structure.png/220px-OsO4structure.png","//bits.wikimedia.org/static-1.21wmf10/skins/common/images/magnify-clip.png","//upload.wikimedia.org/wikipedia/commons/thumb/3/31/Dihydroxylation_with_OsO4.png/700px-Dihydroxylation_with_OsO4.png","//upload.wikimedia.org/wikipedia/commons/9/9f/Isosteviol-OsO4.gif","//upload.wikimedia.org/wikipedia/commons/thumb/1/15/OsStaining.jpg/220px-OsStaining.jpg","//bits.wikimedia.org/static-1.21wmf10/skins/common/images/magnify-clip.png","//upload.wikimedia.org/wikipedia/commons/thumb/f/fb/Resin-Embedded_Transmission_Electron_Microscope_Sample.jpg/220px-Resin-Embedded_Transmission_Electron_Microscope_Sample.jpg","//bits.wikimedia.org/static-1.21wmf10/skins/common/images/magnify-clip.png","//upload.wikimedia.org/wikipedia/commons/thumb/7/7a/Label_for_ampoules_of_OsO4.jpg/300px-Label_for_ampoules_of_OsO4.jpg","//bits.wikimedia.org/static-1.21wmf10/skins/common/images/magnify-clip.png","//bits.wikimedia.org/static-1.21wmf11/skins/vector/images/search-ltr.png?303-4","//bits.wikimedia.org/images/wikimedia-button.png","//bits.wikimedia.org/static-1.21wmf11/skins/common/images/poweredby_mediawiki_88x31.png"],"tags":[["osmium(iv_oxide"],["volatility","chemistry"],["sublimation","chemistry"]],"members":["volatility","sublimation"],"related":["Carbon_tetrachloride","Ammonium_hydroxide","Phosphorus_oxychloride","Pearson_symbol","Ruthenium_tetroxide","Osmium(IV)_oxide","Osmium","Oxide","Chemical_compound","Chemical_formula","Osmium","Volatility_(chemistry)","Monoclinic","Chlorine","Chemical_element","Greek_language","Sublimation_(chemistry)","Room_temperature","Osmium_dioxide","Carbon_tetrachloride","Osmium","Oxidation_number","Transition_metal","Covalent","Ionization_energy","Valence_shell","Oxide","Permanganate","Chromate","Alkoxide","Cycloaddition","Catalysis","Hydrogen_peroxide","N-Methylmorpholine_N-oxide","Upjohn_dihydroxylation","Potassium_ferricyanide","Amine","Pyridine","Adduct","Sharpless_asymmetric_dihydroxylation","Lewis_acid","Lewis_base","Amine","Tert-Butylamine","Ammonia","Nitrido_complex","Tert-butanol","Catalysis","Hydrogenation","Carbon_monoxide","Triosmium_dodecacarbonyl","Hydrogen_fluoride","Alkene","Hydroxyl","Syn_addition","Upjohn_dihydroxylation","Sharpless_asymmetric_dihydroxylation","Sharpless_oxyamination","Sodium_periodate","Alkene","Lemieux-Johnson_oxidation","Ozonolysis","Staining","Transmission_electron_microscopy","Lipid","Scanning_electron_microscopy","Sputter_coating","Plasma_membrane","Phospholipid","Protoplasm","Copolymers","Microstructure","Polybutadiene","Transmission_electron_microscopy","Hexamine","Tetrahydrofuran","Buffer_solution","Solution","Chlorine","NaOH","Ammonium_chloride","Hydrogen","Buckminsterfullerene","Carbon","Allotrope","Adduct","Butyl","Pyridine","X-ray_crystallography","Pulmonary_edema","Cornea"]}