{"cursor":"10188","size":15,"audio":[],"currentlang":"en","article":"{{Chembox\n| Verifiedfields = changed Watchedfields = changed verifiedrevid = 443882541\n| ImageFile = Isobutane4.png ImageFile_Ref = ImageSize = 100 ImageName =\n| Skeletal formula of isobutane ImageFile1 = Isobutane.png ImageFile1_Ref =\n| ImageSize1 = 160 ImageName1 = Skeletal formula of isobutane with all implicit\n| carbons shown, and all explicit hydrogens added ImageFileL2 = Isobutane-3D-\n| balls.png ImageFileL2_Ref = ImageNameL2 = Ball and stick model of isobutane\n| ImageFileR2 = isobutane3.png ImageFileR2_Ref = ImageNameR2 = Spacefill model\n| of isobutane IUPACName = Methylpropane Section1 = {{Chembox\n| Identifiers CASNo = 75-28-5 CASNo_Ref = PubChem = 6360 PubChem_Ref =\n| ChemSpiderID = 6120 ChemSpiderID_Ref = UNII = BXR49TP611 UNII_Ref = EINECS =\n| 200-857-2 UNNumber = 1969 KEGG = D04623 KEGG_Ref = ChEBI = 30363 ChEBI_Ref =\n| RTECS = TZ4300000 Beilstein = 1730720 Gmelin = 1301 SMILES = CC(C)C StdInChI =\n| 1S/C4H10/c1-4(2)3/h4H,1-3H3 StdInChI_Ref = StdInChIKey = NNPPMTNAJDCUHE-UHFFFAOYSA-\n| N StdInChIKey_Ref =\n}}\n| Section2 = {{Chembox Properties C = 4 H = 10 Appearance = Colorless gas Odor =\n| Odorless Density = 2.51 mg mL −1 (at 15 °C, 100 kPa) MeltingPtKL =\n| 40 MeltingPtKH = 240 BoilingPtKL = 260 BoilingPtKH = 264 VaporPressure = 204.8\n| kPa (at 21 °C) HenryConstant = 8.6 nmol Pa −1 kg −1\n}}\n| Section3 = {{Chembox Thermochemistry DeltaHf = −134.8–−133.6 kJ\n| mol −1 DeltaHc = −2.86959–−2.86841 MJ mol −1 HeatCapacity\n| = 96.65 J K −1 mol −1\n}}\n| Section4 = {{Chembox Hazards ExternalMSDS = [http://www.praxair.com/praxair.n-\n| sf/d63afe71c771b0d785256519006c5ea1/f5322947a3ab1c8285256e5b0068ef96/$FILE/Is-\n| obutane-Canada.pdf praxair.com] GHSPictograms = GHSSignalWord = 'DANGER'\n| HPhrases = PPhrases = EUIndex = 601-004-00-0 EUClass = RPhrases = SPhrases = ,\n| NFPA-H = 1 NFPA-F = 4 NFPA-R = 0 FlashPt = -83 °C Autoignition = 460 °C\n| ExploLimits = 1.4–8.3%\n}}\n| Section5 = {{Chembox Related Function = alkane OtherFunctn = Isopentane\n}} }} 'Isobutane' ('i-butane'), also known as 'methylpropane', is an isomer of\nbutane. It is the simplest alkane with a tertiary carbon. Concerns with\ndepletion of the ozone layer by freon gases have led to increased use of\nisobutane as a gas for refrigeration systems, especially in domestic\nrefrigerators and freezers, and as a propellant in aerosol sprays. When used as\na refrigerant or a propellant, isobutane is also known as 'R-600a'. Some\nportable camp stoves use a mixture of isobutane with propane, usually 80:20.\nIsobutane is used as a feedstock in the petrochemical industry, for example in\nthe synthesis of isooctane. [http://www.chemistry.org/portal/a/c/s/1/acsdis-\nplay.html?DOC=patentwatch%5Carchive%5C073106_patentwatch.html Patent Watch, July\n31, 2006.]\n\nIts UN number (for hazardous substances see shipping) is UN 1969. Isobutane is\nthe R group for the amino acid leucine.\n","linknr":324,"url":"Isobutane","recorded":1374521721,"links":["/w/index.php?title=Isobutane&action=edit","/w/index.php?title=Isobutane&action=edit","//bits.wikimedia.org/favicon/wikipedia.ico","/w/opensearch_desc.php","//en.wikipedia.org/w/api.php?action=rsd","//creativecommons.org/licenses/by-sa/3.0/","/w/index.php?title=Special:RecentChanges&feed=atom","//bits.wikimedia.org/en.wikipedia.org/load.php?debug=false&lang=en&modules=ext.gadget.DRN-wizard%2CReferenceTooltips%2Ccharinsert%2Cteahouse%7Cext.rtlcite%2Cwikihiero%7Cext.uls.nojs%7Cmediawiki.legacy.commonPrint%2Cshared%7Cmw.PopUpMediaTransform%7Cskins.vector&only=styles&skin=vector&*","//bits.wikimedia.org/en.wikipedia.org/load.php?debug=false&lang=en&modules=site&only=styles&skin=vector&*","//bits.wikimedia.org/en.wikipedia.org/load.php?debug=false&lang=en&modules=startup&only=scripts&skin=vector&*","//bits.wikimedia.org/geoiplookup","//meta.wikimedia.org","#mw-navigation","#p-search","/wiki/File:Isobutane4.png","//upload.wikimedia.org/wikipedia/commons/thumb/e/ea/Isobutane4.png/100px-Isobutane4.png","/wiki/File:Isobutane.png","//upload.wikimedia.org/wikipedia/commons/thumb/9/98/Isobutane.png/160px-Isobutane.png","/wiki/File:Isobutane-3D-balls.png","//upload.wikimedia.org/wikipedia/commons/thumb/3/39/Isobutane-3D-balls.png/100px-Isobutane-3D-balls.png","/wiki/File:Isobutane3.png","//upload.wikimedia.org/wikipedia/commons/thumb/2/23/Isobutane3.png/100px-Isobutane3.png","/wiki/International_Union_of_Pure_and_Applied_Chemistry_nomenclature","#cite_note-1","/wiki/CAS_registry_number","http://www.commonchemistry.org/ChemicalDetail.aspx?ref=75-28-5","//upload.wikimedia.org/wikipedia/en/thumb/f/fb/Yes_check.svg/7px-Yes_check.svg.png","/wiki/PubChem","http://pubchem.ncbi.nlm.nih.gov/summary/summary.cgi?cid=6360","/wiki/ChemSpider","http://www.chemspider.com/6120","//upload.wikimedia.org/wikipedia/en/thumb/f/fb/Yes_check.svg/7px-Yes_check.svg.png","/wiki/Unique_Ingredient_Identifier","http://fdasis.nlm.nih.gov/srs/srsdirect.jsp?regno=BXR49TP611","//upload.wikimedia.org/wikipedia/en/thumb/f/fb/Yes_check.svg/7px-Yes_check.svg.png","/wiki/EC_number_(chemistry)","http://esis.jrc.ec.europa.eu/lib/einecs_IS_reponse.php?genre=ECNO&entree=200-857-2","/wiki/UN_number","/wiki/KEGG","http://www.kegg.jp/entry/D04623","//upload.wikimedia.org/wikipedia/commons/thumb/a/a2/X_mark.svg/7px-X_mark.svg.png","/wiki/ChEBI","https://www.ebi.ac.uk/chebi/searchId.do?chebiId=30363","//upload.wikimedia.org/wikipedia/en/thumb/f/fb/Yes_check.svg/7px-Yes_check.svg.png","/wiki/RTECS","/wiki/Beilstein_database","/wiki/Gmelin_database","/wiki/Jmol","http://chemapps.stolaf.edu/jmol/jmol.php?model=CC%28C%29C","/wiki/Simplified_molecular-input_line-entry_system","/wiki/International_Chemical_Identifier","//upload.wikimedia.org/wikipedia/en/thumb/f/fb/Yes_check.svg/7px-Yes_check.svg.png","//upload.wikimedia.org/wikipedia/en/thumb/f/fb/Yes_check.svg/7px-Yes_check.svg.png","/wiki/Molecular_formula","/wiki/Molar_mass","/wiki/Odor","/wiki/Density","/wiki/Melting_point","/wiki/Boiling_point","/wiki/Vapor_pressure","/wiki/Henry%27s_law","/wiki/Standard_enthalpy_change_of_formation","/wiki/Standard_enthalpy_change_of_combustion","/wiki/Specific_heat_capacity","/wiki/Material_safety_data_sheet","/wiki/Isobutane_(data_page)#Material_Safety_Data_Sheet","/wiki/GHS_hazard_pictograms","/wiki/File:GHS-pictogram-flamme.svg","//upload.wikimedia.org/wikipedia/commons/thumb/6/6d/GHS-pictogram-flamme.svg/50px-GHS-pictogram-flamme.svg.png","/wiki/Globally_Harmonized_System_of_Classification_and_Labelling_of_Chemicals","/wiki/GHS_hazard_statement","/wiki/GHS_precautionary_statements","/wiki/Dangerous_Substances_Directive_(67/548/EEC)","/wiki/File:Hazard_F.svg","//upload.wikimedia.org/wikipedia/commons/thumb/0/06/Hazard_F.svg/40px-Hazard_F.svg.png","/wiki/List_of_R-phrases","/wiki/R12:_Extremely_flammable","/wiki/List_of_S-phrases","/wiki/(S2):_Keep_out_of_the_reach_of_children","/wiki/S16:_Keep_away_from_sources_of_ignition_-_No_smoking","/wiki/NFPA_704","/wiki/File:NFPA_704.svg","//upload.wikimedia.org/wikipedia/commons/thumb/6/6f/NFPA_704.svg/75px-NFPA_704.svg.png","/wiki/Flash_point","/wiki/Autoignition_temperature","/wiki/Explosive_limit","/wiki/Isopentane","/wiki/Isobutane_(data_page)","/wiki/Isobutane_(data_page)#Structure_and_properties","/wiki/Refractive_index","/wiki/Dielectric_constant","/wiki/Isobutane_(data_page)#Thermodynamic_properties","/wiki/Isobutane_(data_page)#Spectral_data","/wiki/UV/VIS_spectroscopy","/wiki/Infrared_spectroscopy","/wiki/NMR_spectroscopy","/wiki/Mass_spectrometry","//upload.wikimedia.org/wikipedia/commons/thumb/a/a2/X_mark.svg/14px-X_mark.svg.png","//en.wikipedia.org/w/index.php?title=Special:ComparePages&rev1=443882541&page2=Isobutane","/wiki/Wikipedia:WikiProject_Chemicals/Chembox_validation","//upload.wikimedia.org/wikipedia/en/thumb/f/fb/Yes_check.svg/10px-Yes_check.svg.png","//upload.wikimedia.org/wikipedia/commons/thumb/a/a2/X_mark.svg/10px-X_mark.svg.png","/wiki/Standard_state","/wiki/Wikipedia:Chemical_infobox#References","/wiki/Isomer","/wiki/Butane","/wiki/Alkane","/wiki/Carbon-carbon_bond","/wiki/Ozone_layer","/wiki/Freon","/wiki/Refrigeration","/wiki/Refrigerator","/wiki/Freezer","/wiki/Propellant","/wiki/Aerosol_spray","/wiki/Refrigerant","/wiki/Propane","/wiki/Petrochemical","/wiki/Isooctane","#cite_note-2","/wiki/Amino_acid","/wiki/Leucine","#Nomenclature","#Uses","#Refrigerant_use","#References","#External_links","/w/index.php?title=Isobutane&action=edit&section=1","/wiki/Trivial_name","/wiki/International_Union_of_Pure_and_Applied_Chemistry","#cite_note-3","/wiki/File:Butane_simple.svg","//upload.wikimedia.org/wikipedia/commons/thumb/a/ab/Butane_simple.svg/120px-Butane_simple.svg.png","/wiki/File:Isobutane4.png","//upload.wikimedia.org/wikipedia/commons/thumb/e/ea/Isobutane4.png/120px-Isobutane4.png","/w/index.php?title=Isobutane&action=edit&section=2","/wiki/Refrigerant","#cite_note-4","#cite_note-5","/wiki/Ozone_depletion_potential","/wiki/Global_Warming_Potential","/wiki/Dichlorodifluoromethane","/wiki/Chlorodifluoromethane","/wiki/1,1,1,2-Tetrafluoroethane","/wiki/Chlorofluorocarbon","/wiki/Hydrofluorocarbon","/wiki/Refrigerant","/wiki/High-density_polyethylene","#cite_note-6","/wiki/Foam","/w/index.php?title=Isobutane&action=edit&section=3","/wiki/United_Kingdom","#cite_note-7","/wiki/R600a","/wiki/Flammability","#cite_note-8","#cite_note-9","#cite_note-10","#cite_note-11","#cite_note-12","#cite_note-13","#cite_note-14","#cite_note-15","#cite_note-16","/w/index.php?title=Isobutane&action=edit&section=4","#cite_ref-1","http://pubchem.ncbi.nlm.nih.gov/summary/summary.cgi?cid=6360&loc=ec_rcs#x291","#cite_ref-2","http://www.chemistry.org/portal/a/c/s/1/acsdisplay.html?DOC=patentwatch%5Carchive%5C073106_patentwatch.html","#cite_ref-3","/wiki/International_Standard_Book_Number","/wiki/Special:BookSources/0-632-03488-2","http://www.acdlabs.com/iupac/nomenclature/93/r93_679.htm","#cite_ref-4","http://ec.europa.eu/environment/ozone/pdf/hcfc_technical_meeting_summary.pdf","#cite_ref-5","http://www.greenpeace.org/usa/en/campaigns/global-warming-and-energy/green-solutions/greenfreeze/","#cite_ref-6","/wiki/Ullmann%27s_Encyclopedia_of_Industrial_Chemistry","/wiki/Digital_object_identifier","http://dx.doi.org/10.1002%2F14356007.a21_487.pub2","#cite_ref-7","http://www.telegraph.co.uk/news/picturegalleries/howaboutthat/6120297/Exploding-fridges-ozone-friendly-gas-theory-for-mystery-blasts.html","#cite_ref-8","http://www.epa.gov/ozone/snap/refrigerants/hc12alng.html","#cite_ref-9","http://www.vasa.org.au/pdf/memberlibrary/hydrocarbons/hc_white_paper.pdf","/wiki/Wikipedia:Link_rot","#cite_ref-10","http://www.autoacforum.com/MACS/HCwarning.pdf","#cite_ref-11","http://www.sae.org/news/releases/05hydrocarbon_warning.htm","#cite_ref-12","http://www.labour.gov.sk.ca/Default.aspx?DN=2fb5ac24-d90e-4408-bf40-559793bd8e96","#cite_ref-13","http://www.vasa.org.au/content/refriggas/index.php#Bookmark%202","/wiki/Wikipedia:Link_rot","#cite_ref-14","http://www.energy.qld.gov.au/zone_files/petroleum_pdf/safety_alert025.pdf","#cite_ref-15","http://www.parliament.nsw.gov.au/prod/parlment/HansArt.nsf/V3Key/LA19971016015","#cite_ref-16","http://www.parliament.nsw.gov.au/prod/parlment/hansart.nsf/V3Key/LC20000629051","/w/index.php?title=Isobutane&action=edit&section=5","http://www.inchem.org/documents/icsc/icsc/eics0901.htm","http://www.cdc.gov/niosh/npg/npgd0350.html","/wiki/Template:E_number_infobox_930-949","/wiki/Template_talk:E_number_infobox_930-949","//en.wikipedia.org/w/index.php?title=Template:E_number_infobox_930-949&action=edit","/wiki/E_number","/wiki/Food_coloring","/wiki/Preservative","/wiki/Antioxidant","/wiki/Acidity_regulator","/wiki/Thickener","/wiki/Food_additive#Categories","/wiki/Emulsifier","/wiki/PH","/wiki/Acidity_regulator","/wiki/Anti-caking_agent","/wiki/Flavour_enhancer","/wiki/Wax","/wiki/Glazing_agent","/wiki/Improving_agent","/wiki/Packaging_gas","/wiki/Sugar_substitute","/wiki/Foaming_agent","/wiki/Calcium_peroxide","/wiki/Argon","/wiki/Helium","/wiki/Dichlorodifluoromethane","/wiki/Nitrogen","/wiki/Nitrous_oxide","/wiki/Butane","/wiki/Propane","/wiki/Oxygen","/wiki/Hydrogen","//en.wikipedia.org/w/index.php?title=Special:CentralAutoLogin/start&type=1x1&from=enwiki","http://en.wikipedia.org/w/index.php?title=Isobutane&oldid=557276179","/wiki/Help:Categories","/wiki/Category:Alkanes","/wiki/Category:Refrigerants","/wiki/Category:Propellants","/wiki/Category:All_articles_with_dead_external_links","/wiki/Category:Articles_with_dead_external_links_from_October_2010","/wiki/Category:Articles_with_changed_KEGG_identifier","/wiki/Category:Chemboxes_which_contain_changes_to_verified_fields","/wiki/Category:Chemboxes_which_contain_changes_to_watched_fields","/w/index.php?title=Special:UserLogin&returnto=Isobutane&type=signup","/w/index.php?title=Special:UserLogin&returnto=Isobutane","/wiki/Isobutane","/wiki/Talk:Isobutane","#","/wiki/Isobutane","/w/index.php?title=Isobutane&action=edit","/w/index.php?title=Isobutane&action=history","#","/w/index.php","//bits.wikimedia.org/static-1.22wmf10/skins/vector/images/search-ltr.png?303-4","/wiki/Main_Page","/wiki/Main_Page","/wiki/Portal:Contents","/wiki/Portal:Featured_content","/wiki/Portal:Current_events","/wiki/Special:Random","//donate.wikimedia.org/wiki/Special:FundraiserRedirector?utm_source=donate&utm_medium=sidebar&utm_campaign=C13_en.wikipedia.org&uselang=en","/wiki/Help:Contents","/wiki/Wikipedia:About","/wiki/Wikipedia:Community_portal","/wiki/Special:RecentChanges","//en.wikipedia.org/wiki/Wikipedia:Contact_us","/wiki/Special:WhatLinksHere/Isobutane","/wiki/Special:RecentChangesLinked/Isobutane","/wiki/Wikipedia:File_Upload_Wizard","/wiki/Special:SpecialPages","/w/index.php?title=Isobutane&oldid=557276179","/w/index.php?title=Isobutane&action=info","//www.wikidata.org/wiki/Q407225","/w/index.php?title=Special:Cite&page=Isobutane&id=557276179","/w/index.php?title=Special:Book&bookcmd=book_creator&referer=Isobutane","/w/index.php?title=Special:Book&bookcmd=render_article&arttitle=Isobutane&oldid=557276179&writer=rl","/w/index.php?title=Isobutane&printable=yes","//bs.wikipedia.org/wiki/E943b","//ca.wikipedia.org/wiki/Metilprop%C3%A0","//cs.wikipedia.org/wiki/Isobutan","//de.wikipedia.org/wiki/Isobutan","//et.wikipedia.org/wiki/Isobutaan","//el.wikipedia.org/wiki/%CE%9C%CE%B5%CE%B8%CF%85%CE%BB%CE%BF%CF%80%CF%81%CE%BF%CF%80%CE%AC%CE%BD%CE%B9%CE%BF","//es.wikipedia.org/wiki/Metilpropano","//eu.wikipedia.org/wiki/Isobutano","//fr.wikipedia.org/wiki/Isobutane","//hr.wikipedia.org/wiki/Izobutan","//id.wikipedia.org/wiki/Isobutana","//it.wikipedia.org/wiki/Isobutano","//he.wikipedia.org/wiki/%D7%90%D7%99%D7%96%D7%95%D7%91%D7%95%D7%98%D7%90%D7%9F","//ka.wikipedia.org/wiki/%E1%83%98%E1%83%96%E1%83%9D%E1%83%91%E1%83%A3%E1%83%A2%E1%83%90%E1%83%9C%E1%83%98","//lb.wikipedia.org/wiki/Isobutan","//hu.wikipedia.org/wiki/Izobut%C3%A1n","//nl.wikipedia.org/wiki/Methylpropaan","//ja.wikipedia.org/wiki/%E3%82%A4%E3%82%BD%E3%83%96%E3%82%BF%E3%83%B3","//no.wikipedia.org/wiki/Isobutan","//pt.wikipedia.org/wiki/Isobutano","//ru.wikipedia.org/wiki/%D0%98%D0%B7%D0%BE%D0%B1%D1%83%D1%82%D0%B0%D0%BD","//sk.wikipedia.org/wiki/Metylprop%C3%A1n","//fi.wikipedia.org/wiki/Isobutaani","//sv.wikipedia.org/wiki/Isobutan","//uk.wikipedia.org/wiki/%D0%86%D0%B7%D0%BE%D0%B1%D1%83%D1%82%D0%B0%D0%BD","//zh.wikipedia.org/wiki/%E5%BC%82%E4%B8%81%E7%83%B7","#","//www.wikidata.org/wiki/Q407225#sitelinks-wikipedia","//en.wikipedia.org/wiki/Wikipedia:Text_of_Creative_Commons_Attribution-ShareAlike_3.0_Unported_License","//creativecommons.org/licenses/by-sa/3.0/","//wikimediafoundation.org/wiki/Terms_of_Use","//wikimediafoundation.org/wiki/Privacy_policy","//www.wikimediafoundation.org/","//wikimediafoundation.org/wiki/Privacy_policy","/wiki/Wikipedia:About","/wiki/Wikipedia:General_disclaimer","//en.wikipedia.org/wiki/Wikipedia:Contact_us","//en.m.wikipedia.org/wiki/Isobutane","//wikimediafoundation.org/","//bits.wikimedia.org/images/wikimedia-button.png","//www.mediawiki.org/","//bits.wikimedia.org/static-1.22wmf10/skins/common/images/poweredby_mediawiki_88x31.png","//bits.wikimedia.org/en.wikipedia.org/load.php?debug=false&lang=en&modules=site&only=scripts&skin=vector&*"],"instances":[],"pdf":["http://ec.europa.eu/environment/ozone/pdf/hcfc_technical_meeting_summary.pdf","http://www.vasa.org.au/pdf/memberlibrary/hydrocarbons/hc_white_paper.pdf","http://www.autoacforum.com/MACS/HCwarning.pdf","http://www.energy.qld.gov.au/zone_files/petroleum_pdf/safety_alert025.pdf"],"categories":["Alkanes","Refrigerants","Propellants"],"headings":["Nomenclature","Uses","Refrigerant use","References","External links"],"image":["//upload.wikimedia.org/wikipedia/commons/thumb/e/ea/Isobutane4.png/100px-Isobutane4.png","//upload.wikimedia.org/wikipedia/commons/thumb/9/98/Isobutane.png/160px-Isobutane.png","//upload.wikimedia.org/wikipedia/commons/thumb/3/39/Isobutane-3D-balls.png/100px-Isobutane-3D-balls.png","//upload.wikimedia.org/wikipedia/commons/thumb/2/23/Isobutane3.png/100px-Isobutane3.png","//upload.wikimedia.org/wikipedia/en/thumb/f/fb/Yes_check.svg/7px-Yes_check.svg.png","//upload.wikimedia.org/wikipedia/en/thumb/f/fb/Yes_check.svg/7px-Yes_check.svg.png","//upload.wikimedia.org/wikipedia/en/thumb/f/fb/Yes_check.svg/7px-Yes_check.svg.png","//upload.wikimedia.org/wikipedia/commons/thumb/a/a2/X_mark.svg/7px-X_mark.svg.png","//upload.wikimedia.org/wikipedia/en/thumb/f/fb/Yes_check.svg/7px-Yes_check.svg.png","//upload.wikimedia.org/wikipedia/en/thumb/f/fb/Yes_check.svg/7px-Yes_check.svg.png","//upload.wikimedia.org/wikipedia/en/thumb/f/fb/Yes_check.svg/7px-Yes_check.svg.png","//upload.wikimedia.org/wikipedia/commons/thumb/6/6d/GHS-pictogram-flamme.svg/50px-GHS-pictogram-flamme.svg.png","//upload.wikimedia.org/wikipedia/commons/thumb/0/06/Hazard_F.svg/40px-Hazard_F.svg.png","//upload.wikimedia.org/wikipedia/commons/thumb/6/6f/NFPA_704.svg/75px-NFPA_704.svg.png","//upload.wikimedia.org/wikipedia/commons/thumb/a/a2/X_mark.svg/14px-X_mark.svg.png","//upload.wikimedia.org/wikipedia/en/thumb/f/fb/Yes_check.svg/10px-Yes_check.svg.png","//upload.wikimedia.org/wikipedia/commons/thumb/a/a2/X_mark.svg/10px-X_mark.svg.png","//upload.wikimedia.org/wikipedia/commons/thumb/a/ab/Butane_simple.svg/120px-Butane_simple.svg.png","//upload.wikimedia.org/wikipedia/commons/thumb/e/ea/Isobutane4.png/120px-Isobutane4.png","//en.wikipedia.org/w/index.php?title=Special:CentralAutoLogin/start&type=1x1&from=enwiki","//bits.wikimedia.org/static-1.22wmf10/skins/vector/images/search-ltr.png?303-4","//bits.wikimedia.org/images/wikimedia-button.png","//bits.wikimedia.org/static-1.22wmf10/skins/common/images/poweredby_mediawiki_88x31.png"],"tags":[],"members":[],"related":["Isopentane","Isomer","Butane","Alkane","Carbon-carbon_bond","Ozone_layer","Freon","Refrigeration","Refrigerator","Freezer","Propellant","Aerosol_spray","Refrigerant","Propane","Petrochemical","Isooctane","Amino_acid","Leucine","Trivial_name","International_Union_of_Pure_and_Applied_Chemistry","Refrigerant","Ozone_depletion_potential","Global_Warming_Potential","Dichlorodifluoromethane","Chlorodifluoromethane","1,1,1,2-Tetrafluoroethane","Chlorofluorocarbon","Hydrofluorocarbon","Refrigerant","High-density_polyethylene","Foam","United_Kingdom","R600a","Flammability"]}