{"cursor":"6891","size":15,"audio":[],"currentlang":"en","article":"{{Chembox\n| verifiedrevid = 477209668 ImageFile = 2,2,4-Trimethylpentane.svg ImageFile_Ref\n| = ImageSize = 160 ImageName = Skeletal formula of 2,2,4-trimethylpentane\n| ImageFile1 = Isooctane-3D-balls.png ImageFile1_Ref = ImageSize1 = 160\n| ImageName1 = Ball and stick model of 2,2,4-trimethylpentane ImageFile2 = Isooctane-3D-\n| vdW.png ImageFile2_Ref = ImageSize2 = 160 ImageName2 = Spacefill model of 2,2,4-\n| trimethylpentane IUPACName = 2,2,4-Trimethylpentane Section1 =\n| {{Chembox Identifiers CASNo = 540-84-1 CASNo_Ref = PubChem = 10907 PubChem_Ref\n| = ChemSpiderID = 10445 ChemSpiderID_Ref = EINECS = 208-759-1 UNNumber = 1262\n| MeSHName = 2,2,4-trimethylpentane ChEBI = 62805 ChEBI_Ref = ChEMBL = 1797261\n| ChEMBL_Ref = RTECS = SA3320000 Beilstein = 1696876 SMILES = CC(C)CC(C)(C)C\n| StdInChI = 1S/C8H18/c1-7(2)6-8(3,4)5/h7H,6H2,1-5H3 StdInChIKey_Ref =\n| StdInChIKey = NHTMVDHEPJAVLT-UHFFFAOYSA-N StdInChI_Ref =\n}}\n| Section2 = {{Chembox Properties C = 8 H = 18 Appearance = Colorless liquid\n| Odor = Odorless Density = 692 mg mL −1 MeltingPtKL = 165.71\n| MeltingPtKH = 165.83 BoilingPtKL = 372.2 BoilingPtKH = 372.6 LogP = 4.373\n| VaporPressure = 5.5 kPa (at 21 °C) HenryConstant = 3.0 nmol Pa −1\n| kg −1 LambdaMax = 210 nm RefractIndex = 1.391\n}}\n| Section3 = {{Chembox Thermochemistry DeltaHf = −260.6–−258.0 kJ\n| mol −1 DeltaHc = −5462.6–−5460.0 kJ mol −1 Entropy =\n| 328.03 J K −1 mol −1 HeatCapacity = 242.49 J\n| K −1 mol −1\n}}\n| Section4 = {{Chembox Hazards GHSPictograms = GHSSignalWord = 'DANGER' HPhrases\n| = PPhrases = EUIndex = 601-009-00-8 EUClass = RPhrases = , , , , SPhrases = ,\n| , , NFPA-H = 1 NFPA-F = 4 NFPA-R = 0 FlashPt = −12 °C Autoignition = 396 °C\n| ExploLimits = 1.1–6.0%\n}}\n| Section5 = {{Chembox Related Function = alkanes OtherFunctn =\n}} }} '2,2,4-Trimethylpentane', also known as 'isooctane', 'iso-octane', is an\norganic compound with the formula\n(CH 3) 3CCH 2CH(CH 3) 2. It is\none of several isomers of octane (C 8H 18 ). This particular\nisomer is the standard 100 point on the octane rating scale (the zero point is\n''n''-heptane). It is an important component of gasoline, frequently used in\nrelatively large proportions to increase the knock resistance of the\nfuel. Werner Dabelstein, Arno Reglitzky, Andrea Schütze and Klaus Reders\n\"Automotive Fuels\" in Ullmann's Encyclopedia of Industrial Chemistry 2007, Wiley-\nVCH, Weinheim.\n\nStrictly speaking, if we follow the standard meaning for ‘iso’, the name\nisooctane should be reserved for the isomer 2-methylheptane. However, 2,2,4-\ntrimethylpentane is by far the most important isomer of octane and so,\nhistorically, it has ended up with this name.\n","linknr":276,"url":"Isooctane","recorded":1374783817,"links":["/w/index.php?title=2,2,4-Trimethylpentane&action=edit","/w/index.php?title=2,2,4-Trimethylpentane&action=edit","//bits.wikimedia.org/favicon/wikipedia.ico","/w/opensearch_desc.php","//en.wikipedia.org/w/api.php?action=rsd","//creativecommons.org/licenses/by-sa/3.0/","/w/index.php?title=Special:RecentChanges&feed=atom","/wiki/2,2,4-Trimethylpentane","//bits.wikimedia.org/en.wikipedia.org/load.php?debug=false&lang=en&modules=ext.gadget.DRN-wizard%2CReferenceTooltips%2Ccharinsert%2Cteahouse%7Cext.rtlcite%2Cwikihiero%7Cmediawiki.legacy.commonPrint%2Cshared%7Cmw.PopUpMediaTransform%7Cskins.vector&only=styles&skin=vector&*","//bits.wikimedia.org/en.wikipedia.org/load.php?debug=false&lang=en&modules=site&only=styles&skin=vector&*","//bits.wikimedia.org/en.wikipedia.org/load.php?debug=false&lang=en&modules=startup&only=scripts&skin=vector&*","//bits.wikimedia.org/geoiplookup","//meta.wikimedia.org","/w/index.php?title=Isooctane&redirect=no","#mw-navigation","#p-search","/wiki/File:2,2,4-Trimethylpentane.svg","//upload.wikimedia.org/wikipedia/commons/thumb/4/40/2%2C2%2C4-Trimethylpentane.svg/160px-2%2C2%2C4-Trimethylpentane.svg.png","/wiki/File:Isooctane-3D-balls.png","//upload.wikimedia.org/wikipedia/commons/thumb/d/d7/Isooctane-3D-balls.png/160px-Isooctane-3D-balls.png","/wiki/File:Isooctane-3D-vdW.png","//upload.wikimedia.org/wikipedia/commons/thumb/d/dc/Isooctane-3D-vdW.png/160px-Isooctane-3D-vdW.png","/wiki/International_Union_of_Pure_and_Applied_Chemistry_nomenclature","#cite_note-1","/wiki/CAS_registry_number","http://www.commonchemistry.org/ChemicalDetail.aspx?ref=540-84-1","//upload.wikimedia.org/wikipedia/en/thumb/f/fb/Yes_check.svg/7px-Yes_check.svg.png","/wiki/PubChem","http://pubchem.ncbi.nlm.nih.gov/summary/summary.cgi?cid=10907","/wiki/ChemSpider","http://www.chemspider.com/10445","//upload.wikimedia.org/wikipedia/en/thumb/f/fb/Yes_check.svg/7px-Yes_check.svg.png","/wiki/EC_number_(chemistry)","http://esis.jrc.ec.europa.eu/lib/einecs_IS_reponse.php?genre=ECNO&entree=208-759-1","/wiki/UN_number","/wiki/Medical_Subject_Headings","http://www.nlm.nih.gov/cgi/mesh/2007/MB_cgi?mode=&term=2,2,4-trimethylpentane","/wiki/ChEBI","https://www.ebi.ac.uk/chebi/searchId.do?chebiId=62805","//upload.wikimedia.org/wikipedia/en/thumb/f/fb/Yes_check.svg/7px-Yes_check.svg.png","/wiki/ChEMBL","https://www.ebi.ac.uk/chembldb/index.php/compound/inspect/CHEMBL1797261","//upload.wikimedia.org/wikipedia/en/thumb/f/fb/Yes_check.svg/7px-Yes_check.svg.png","/wiki/RTECS","/wiki/Beilstein_database","/wiki/Jmol","http://chemapps.stolaf.edu/jmol/jmol.php?model=CC%28C%29CC%28C%29%28C%29C","/wiki/Simplified_molecular-input_line-entry_system","/wiki/International_Chemical_Identifier","//upload.wikimedia.org/wikipedia/en/thumb/f/fb/Yes_check.svg/7px-Yes_check.svg.png","//upload.wikimedia.org/wikipedia/en/thumb/f/fb/Yes_check.svg/7px-Yes_check.svg.png","/wiki/Molecular_formula","/wiki/Molar_mass","/wiki/Odor","/wiki/Density","/wiki/Melting_point","/wiki/Boiling_point","/wiki/Partition_coefficient","/wiki/Vapor_pressure","/wiki/Henry%27s_law","/wiki/Lambda-max","/wiki/Refractive_index","/wiki/Standard_enthalpy_change_of_formation","/wiki/Standard_enthalpy_change_of_combustion","/wiki/Standard_molar_entropy","/wiki/Specific_heat_capacity","/wiki/GHS_hazard_pictograms","/wiki/File:GHS-pictogram-flamme.svg","//upload.wikimedia.org/wikipedia/commons/thumb/6/6d/GHS-pictogram-flamme.svg/50px-GHS-pictogram-flamme.svg.png","/wiki/File:GHS-pictogram-exclam.svg","//upload.wikimedia.org/wikipedia/commons/thumb/c/c3/GHS-pictogram-exclam.svg/50px-GHS-pictogram-exclam.svg.png","/wiki/File:GHS-pictogram-silhouete.svg","//upload.wikimedia.org/wikipedia/commons/thumb/d/d5/GHS-pictogram-silhouete.svg/50px-GHS-pictogram-silhouete.svg.png","/wiki/File:GHS-pictogram-pollu.svg","//upload.wikimedia.org/wikipedia/commons/thumb/b/b9/GHS-pictogram-pollu.svg/50px-GHS-pictogram-pollu.svg.png","/wiki/Globally_Harmonized_System_of_Classification_and_Labelling_of_Chemicals","/wiki/GHS_hazard_statement","/wiki/GHS_precautionary_statements","/wiki/Dangerous_Substances_Directive_(67/548/EEC)","/wiki/File:Hazard_F.svg","//upload.wikimedia.org/wikipedia/commons/thumb/0/06/Hazard_F.svg/40px-Hazard_F.svg.png","/wiki/File:Hazard_X.svg","//upload.wikimedia.org/wikipedia/commons/thumb/e/ed/Hazard_X.svg/40px-Hazard_X.svg.png","/wiki/File:Hazard_N.svg","//upload.wikimedia.org/wikipedia/commons/thumb/6/6a/Hazard_N.svg/40px-Hazard_N.svg.png","/wiki/List_of_R-phrases","/wiki/R11:_Highly_flammable","/wiki/R38:_Irritating_to_skin","/wiki/R50/53:_Very_toxic_to_aquatic_organisms,_may_cause_long-term_adverse_effects_in_the_aquatic_environment","/wiki/R65:_Harmful:_may_cause_lung_damage_if_swallowed","/wiki/R67:_Vapours_may_cause_drowsiness_and_dizziness","/wiki/List_of_S-phrases","/wiki/(S2):_Keep_out_of_the_reach_of_children","/wiki/S16:_Keep_away_from_sources_of_ignition_-_No_smoking","/wiki/S29:_Do_not_empty_into_drains","/wiki/S33:_Take_precautionary_measures_against_static_discharges","/wiki/NFPA_704","/wiki/File:NFPA_704.svg","//upload.wikimedia.org/wikipedia/commons/thumb/6/6f/NFPA_704.svg/75px-NFPA_704.svg.png","/wiki/Flash_point","/wiki/Autoignition_temperature","/wiki/Explosive_limit","/wiki/2,2-Dimethylbutane","/wiki/2,3-Dimethylbutane","/wiki/Triptane","/wiki/Tetramethylbutane","/wiki/Tetraethylmethane","/wiki/2,3,3-Trimethylpentane","/wiki/2,3,4-Trimethylpentane","/wiki/Tetra-tert-butylmethane","/wiki/2,3-Dimethylhexane","/wiki/2,5-Dimethylhexane","//upload.wikimedia.org/wikipedia/en/thumb/f/fb/Yes_check.svg/14px-Yes_check.svg.png","//en.wikipedia.org/w/index.php?title=Special:ComparePages&rev1=477209668&page2=2%2C2%2C4-Trimethylpentane","/wiki/Wikipedia:WikiProject_Chemicals/Chembox_validation","//upload.wikimedia.org/wikipedia/en/thumb/f/fb/Yes_check.svg/10px-Yes_check.svg.png","//upload.wikimedia.org/wikipedia/commons/thumb/a/a2/X_mark.svg/10px-X_mark.svg.png","/wiki/Standard_state","/wiki/Wikipedia:Chemical_infobox#References","/wiki/Organic_compound","/wiki/Isomer","/wiki/Octane","/wiki/Octane_rating","/wiki/Heptane","/wiki/Gasoline","/wiki/Engine_knocking","#cite_note-2","/wiki/2-methylheptane","#cite_note-3","#Production","#History","#Safety","#See_also","#References","#External_links","/w/index.php?title=2,2,4-Trimethylpentane&action=edit&section=1","/wiki/Petroleum","/wiki/Isobutylene","/wiki/Dimer_(chemistry)","/wiki/Alkylation","/wiki/Amberlyst","/wiki/Catalyst","/wiki/Hydrogenation","#cite_note-4","/wiki/File:Iso-octane_synthesis.svg","//upload.wikimedia.org/wikipedia/commons/thumb/8/8f/Iso-octane_synthesis.svg/400px-Iso-octane_synthesis.svg.png","/wiki/File:Iso-octane_synthesis.svg","//bits.wikimedia.org/static-1.22wmf6/skins/common/images/magnify-clip.png","/w/index.php?title=2,2,4-Trimethylpentane&action=edit&section=2","/wiki/Engine_knocking","/wiki/Internal_combustion_engine","/w/index.php?title=Graham_Edgar&action=edit&redlink=1","/wiki/Heptane","/wiki/Octane_rating","#cite_note-5","/w/index.php?title=2,2,4-Trimethylpentane&action=edit&section=3","#cite_note-6","/w/index.php?title=2,2,4-Trimethylpentane&action=edit&section=4","/wiki/Oil_refinery","/wiki/Antiknock_agent","/w/index.php?title=2,2,4-Trimethylpentane&action=edit&section=5","#cite_ref-1","http://pubchem.ncbi.nlm.nih.gov/summary/summary.cgi?cid=10907&loc=ec_rcs#x291","#cite_ref-2","/wiki/Digital_object_identifier","http://dx.doi.org/10.1002%2F14356007.a16_719.pub2","#cite_ref-3","/wiki/International_Standard_Book_Number","/wiki/Special:BookSources/978-0-19-850346-0","#cite_ref-4","http://www.amberlyst.com/isooctane.htm","#cite_ref-5","http://books.google.ca/books?id=J_AkNu-Y1wQC&pg=PA62&lpg=PA62&dq=Graham+Edgar+2,2,4-trimethylpentane&source=bl&ots=j-EpdKDSiw&sig=Wcig6ufy1YJ3cyI-G41AyInkWwU&hl=en&ei=66YmS_nFLcGwlAfTurGMCg&sa=X&oi=book_result&ct=result&resnum=5&ved=0CBgQ6AEwBA#v=onepage&q=Graham%20Edgar%202%2C2%2C4-trimethylpentane&f=false","#cite_ref-6","http://www.epa.gov/iris/subst/0614.htm","/wiki/United_States_Environmental_Protection_Agency","/w/index.php?title=2,2,4-Trimethylpentane&action=edit&section=6","http://www.inchem.org/documents/icsc/icsc/eics0496.htm","/wiki/Template:Alkanes","/wiki/Template_talk:Alkanes","//en.wikipedia.org/w/index.php?title=Template:Alkanes&action=edit","/wiki/Alkane","/wiki/Methane","/wiki/Ethane","/wiki/Propane","/wiki/Butane","/wiki/Pentane","/wiki/Hexane","/wiki/Heptane","/wiki/Octane","/wiki/Nonane","/wiki/Decane","/wiki/Undecane","/wiki/Dodecane","/wiki/Tridecane","/wiki/Tetradecane","/wiki/Pentadecane","/wiki/Hexadecane","/wiki/Heptadecane","/wiki/Octadecane","/wiki/Nonadecane","/wiki/Icosane","/wiki/Higher_alkanes","/wiki/List_of_straight-chain_alkanes","http://en.wikipedia.org/w/index.php?title=2,2,4-Trimethylpentane&oldid=554210277","/wiki/Help:Categories","/wiki/Category:Alkanes","/wiki/Category:Antiknock_agents","/w/index.php?title=Special:UserLogin&returnto=2%2C2%2C4-Trimethylpentane&type=signup","/w/index.php?title=Special:UserLogin&returnto=2%2C2%2C4-Trimethylpentane","/wiki/2,2,4-Trimethylpentane","/wiki/Talk:2,2,4-Trimethylpentane","#","/wiki/2,2,4-Trimethylpentane","/w/index.php?title=2,2,4-Trimethylpentane&action=edit","/w/index.php?title=2,2,4-Trimethylpentane&action=history","#","/w/index.php","//bits.wikimedia.org/static-1.22wmf7/skins/vector/images/search-ltr.png?303-4","/wiki/Main_Page","/wiki/Main_Page","/wiki/Portal:Contents","/wiki/Portal:Featured_content","/wiki/Portal:Current_events","/wiki/Special:Random","//donate.wikimedia.org/wiki/Special:FundraiserRedirector?utm_source=donate&utm_medium=sidebar&utm_campaign=C13_en.wikipedia.org&uselang=en","/wiki/Help:Contents","/wiki/Wikipedia:About","/wiki/Wikipedia:Community_portal","/wiki/Special:RecentChanges","//en.wikipedia.org/wiki/Wikipedia:Contact_us","/wiki/Special:WhatLinksHere/2,2,4-Trimethylpentane","/wiki/Special:RecentChangesLinked/2,2,4-Trimethylpentane","/wiki/Wikipedia:File_Upload_Wizard","/wiki/Special:SpecialPages","/w/index.php?title=2,2,4-Trimethylpentane&oldid=554210277","/w/index.php?title=2,2,4-Trimethylpentane&action=info","/w/index.php?title=Special:Cite&page=2%2C2%2C4-Trimethylpentane&id=554210277","/w/index.php?title=Special:Book&bookcmd=book_creator&referer=2%2C2%2C4-Trimethylpentane","/w/index.php?title=Special:Book&bookcmd=render_article&arttitle=2%2C2%2C4-Trimethylpentane&oldid=554210277&writer=rl","/w/index.php?title=2,2,4-Trimethylpentane&printable=yes","//be.wikipedia.org/wiki/%D0%86%D0%B7%D0%B0%D0%B0%D0%BA%D1%82%D0%B0%D0%BD","//cs.wikipedia.org/wiki/Isooktan","//da.wikipedia.org/wiki/Isooktan","//de.wikipedia.org/wiki/2,2,4-Trimethylpentan","//es.wikipedia.org/wiki/2,2,4-trimetilpentano","//fr.wikipedia.org/wiki/Isooctane","//id.wikipedia.org/wiki/2,2,4-Trimetilpentana","//it.wikipedia.org/wiki/Isoottano","//ms.wikipedia.org/wiki/Iso-oktana","//nl.wikipedia.org/wiki/2,2,4-trimethylpentaan","//ja.wikipedia.org/wiki/%E3%82%A4%E3%82%BD%E3%82%AA%E3%82%AF%E3%82%BF%E3%83%B3","//uz.wikipedia.org/wiki/Izooktan","//pl.wikipedia.org/wiki/2,2,4-Trimetylopentan","//pt.wikipedia.org/wiki/2,2,4-Trimetilpentano","//ru.wikipedia.org/wiki/%D0%98%D0%B7%D0%BE%D0%BE%D0%BA%D1%82%D0%B0%D0%BD","//fi.wikipedia.org/wiki/2,2,4-trimetyylipentaani","//sv.wikipedia.org/wiki/Isooktan","//vi.wikipedia.org/wiki/2,2,4-Trim%C3%AAtylpentan","//zh.wikipedia.org/wiki/2,2,4-%E4%B8%89%E7%94%B2%E5%9F%BA%E6%88%8A%E7%83%B7","//www.wikidata.org/wiki/Q209130#sitelinks","//en.wikipedia.org/wiki/Wikipedia:Text_of_Creative_Commons_Attribution-ShareAlike_3.0_Unported_License","//creativecommons.org/licenses/by-sa/3.0/","//wikimediafoundation.org/wiki/Terms_of_Use","//wikimediafoundation.org/wiki/Privacy_policy","//www.wikimediafoundation.org/","//wikimediafoundation.org/wiki/Privacy_policy","/wiki/Wikipedia:About","/wiki/Wikipedia:General_disclaimer","//en.wikipedia.org/wiki/Wikipedia:Contact_us","//en.m.wikipedia.org/wiki/2,2,4-Trimethylpentane","//wikimediafoundation.org/","//bits.wikimedia.org/images/wikimedia-button.png","//www.mediawiki.org/","//bits.wikimedia.org/static-1.22wmf7/skins/common/images/poweredby_mediawiki_88x31.png","/w/index.php?title=MediaWiki:Gadget-ReferenceTooltips.js&action=raw&ctype=text/javascript&508635914","//bits.wikimedia.org/en.wikipedia.org/load.php?debug=false&lang=en&modules=site&only=scripts&skin=vector&*"],"instances":["chemistry"],"pdf":[],"categories":["Alkanes","Antiknock agents"],"headings":["Production","History","Safety","See also","References","External links"],"image":["//upload.wikimedia.org/wikipedia/commons/thumb/4/40/2%2C2%2C4-Trimethylpentane.svg/160px-2%2C2%2C4-Trimethylpentane.svg.png","//upload.wikimedia.org/wikipedia/commons/thumb/d/d7/Isooctane-3D-balls.png/160px-Isooctane-3D-balls.png","//upload.wikimedia.org/wikipedia/commons/thumb/d/dc/Isooctane-3D-vdW.png/160px-Isooctane-3D-vdW.png","//upload.wikimedia.org/wikipedia/en/thumb/f/fb/Yes_check.svg/7px-Yes_check.svg.png","//upload.wikimedia.org/wikipedia/en/thumb/f/fb/Yes_check.svg/7px-Yes_check.svg.png","//upload.wikimedia.org/wikipedia/en/thumb/f/fb/Yes_check.svg/7px-Yes_check.svg.png","//upload.wikimedia.org/wikipedia/en/thumb/f/fb/Yes_check.svg/7px-Yes_check.svg.png","//upload.wikimedia.org/wikipedia/en/thumb/f/fb/Yes_check.svg/7px-Yes_check.svg.png","//upload.wikimedia.org/wikipedia/en/thumb/f/fb/Yes_check.svg/7px-Yes_check.svg.png","//upload.wikimedia.org/wikipedia/commons/thumb/6/6d/GHS-pictogram-flamme.svg/50px-GHS-pictogram-flamme.svg.png","//upload.wikimedia.org/wikipedia/commons/thumb/c/c3/GHS-pictogram-exclam.svg/50px-GHS-pictogram-exclam.svg.png","//upload.wikimedia.org/wikipedia/commons/thumb/d/d5/GHS-pictogram-silhouete.svg/50px-GHS-pictogram-silhouete.svg.png","//upload.wikimedia.org/wikipedia/commons/thumb/b/b9/GHS-pictogram-pollu.svg/50px-GHS-pictogram-pollu.svg.png","//upload.wikimedia.org/wikipedia/commons/thumb/0/06/Hazard_F.svg/40px-Hazard_F.svg.png","//upload.wikimedia.org/wikipedia/commons/thumb/e/ed/Hazard_X.svg/40px-Hazard_X.svg.png","//upload.wikimedia.org/wikipedia/commons/thumb/6/6a/Hazard_N.svg/40px-Hazard_N.svg.png","//upload.wikimedia.org/wikipedia/commons/thumb/6/6f/NFPA_704.svg/75px-NFPA_704.svg.png","//upload.wikimedia.org/wikipedia/en/thumb/f/fb/Yes_check.svg/14px-Yes_check.svg.png","//upload.wikimedia.org/wikipedia/en/thumb/f/fb/Yes_check.svg/10px-Yes_check.svg.png","//upload.wikimedia.org/wikipedia/commons/thumb/a/a2/X_mark.svg/10px-X_mark.svg.png","//upload.wikimedia.org/wikipedia/commons/thumb/8/8f/Iso-octane_synthesis.svg/400px-Iso-octane_synthesis.svg.png","//bits.wikimedia.org/static-1.22wmf6/skins/common/images/magnify-clip.png","//bits.wikimedia.org/static-1.22wmf7/skins/vector/images/search-ltr.png?303-4","//bits.wikimedia.org/images/wikimedia-button.png","//bits.wikimedia.org/static-1.22wmf7/skins/common/images/poweredby_mediawiki_88x31.png"],"tags":[["dimer","chemistry"]],"members":["dimer"],"related":["Organic_compound","Isomer","Octane","Octane_rating","Heptane","Gasoline","Engine_knocking","2-methylheptane","Petroleum","Isobutylene","Dimer_(chemistry)","Alkylation","Amberlyst","Catalyst","Hydrogenation","Engine_knocking","Internal_combustion_engine","Graham_Edgar","Heptane","Octane_rating","United_States_Environmental_Protection_Agency","Oil_refinery","Antiknock_agent"]}