{"cursor":"13711","size":15,"audio":[],"currentlang":"en","article":"\n\nA 'xylene' (from Greek ξυλος, xylos, \"wood\") is an aromatic hydrocarbon\nconsisting of a benzene ring with two methyl substituents. The three isomeric\nxylenes each have a molecular formula of C 8H 10 , though the\nmore informative semi-structural formula\nC 6H 4(CH 3) 2 is also used commonly.\nThe xylenes are major petrochemicals, produced by catalytic reforming and also\nby coal carbonisation in the manufacture of coke fuel. Representing about 0.5–1%\nof crude oil (depending on the source), xylenes are found in small quantities in\ngasoline and airplane fuels. Xylenes are mainly produced as part of the BTX\naromatics (benzene, toluene and xylenes) extracted from the product of catalytic\nreforming known as \"reformate\". The mixture is a slightly greasy, colourless\nliquid commonly encountered as a solvent. It was named in 1851, having been\ndiscovered as a constituent of wood tar. Several million tons are produced\nannually. Fabri, Jörg, Graeser, Ulrich, and Simo, Thomas A.,\nXylenes, Ullmann's Encyclopedia of Industrial Chemistry, 2002, Wiley-VCH,\nWeinheim. . In 2011, a global consortium began construction of one of the\nworld’s largest xylene plants in Singapore. Tremblay, Jean-François, [http://pubs.acs.org/doi/abs/10.1021/cen-\nv089n038.p018 Making Aromatics In Singapore], Chem. Eng. News, '89' (38), 2011-9-\n19, pp 18–19. Accessed 2012-4-28.\n","linknr":312,"url":"Xylene","recorded":1374967134,"links":["/w/index.php?title=Xylene&action=edit","/w/index.php?title=Xylene&action=edit","//bits.wikimedia.org/favicon/wikipedia.ico","/w/opensearch_desc.php","//en.wikipedia.org/w/api.php?action=rsd","//creativecommons.org/licenses/by-sa/3.0/","/w/index.php?title=Special:RecentChanges&feed=atom","//bits.wikimedia.org/en.wikipedia.org/load.php?debug=false&lang=en&modules=ext.gadget.DRN-wizard%2CReferenceTooltips%2Ccharinsert%2Cteahouse%7Cext.rtlcite%2Cwikihiero%7Cext.uls.nojs%7Cmediawiki.legacy.commonPrint%2Cshared%7Cmw.PopUpMediaTransform%7Cskins.vector&only=styles&skin=vector&*","//bits.wikimedia.org/en.wikipedia.org/load.php?debug=false&lang=en&modules=site&only=styles&skin=vector&*","//bits.wikimedia.org/en.wikipedia.org/load.php?debug=false&lang=en&modules=startup&only=scripts&skin=vector&*","//bits.wikimedia.org/geoiplookup","//meta.wikimedia.org","#mw-navigation","#p-search","/wiki/File:IUPAC-cyclic.svg","//upload.wikimedia.org/wikipedia/commons/thumb/b/b3/IUPAC-cyclic.svg/446px-IUPAC-cyclic.svg.png","/wiki/Ancient_Greek_language","/wiki/Aromatic_hydrocarbon","/wiki/Benzene","/wiki/Isomer","/wiki/Molecular_formula","/wiki/Petrochemical","/wiki/Catalytic_reforming","/wiki/Carbonization","/wiki/Coke_(fuel)","/wiki/Gasoline","/wiki/Jet_fuel","/wiki/BTX_(chemistry)","/wiki/Solvent","/wiki/Wood_tar","#cite_note-Ullmann-1","/wiki/Singapore","#cite_note-2","#Production","#Properties","#Applications","#Terephthalic_acid_and_related_derivatives","#Solvent_applications","#Laboratory_uses","#Precursor_to_other_compounds","#Safety","#See_also","#References","#External_links","/w/index.php?title=Xylene&action=edit&section=1","/w/index.php?title=Dehydrocyclodimerization&action=edit&redlink=1","/wiki/Methylation","#cite_note-Ullmann-1","#cite_note-3","/wiki/Zeolite","#cite_note-Ullmann-1","/w/index.php?title=Xylene&action=edit&section=2","/wiki/Carbon","/wiki/Benzene#Structure","/wiki/Methyl","/wiki/Atom","/wiki/IUPAC","/wiki/Pound_(mass)","/wiki/Imperial_gallon","/wiki/Properties_of_water","/wiki/O-Xylene","/wiki/M-Xylene","/wiki/P-Xylene","/wiki/IUPAC_nomenclature","/wiki/Chemical_formula","/wiki/Simplified_molecular_input_line_entry_specification","/wiki/Molar_mass","/wiki/CAS_registry_number","/wiki/Density","/wiki/Phase_(matter)","/wiki/Soluble","/wiki/Aromatic_hydrocarbon","/wiki/Melting_point","/wiki/Boiling_point","/wiki/Viscosity","/wiki/Poise","/wiki/Poise","/wiki/Poise","/wiki/Material_safety_data_sheet","#cite_note-msdsXy-4","https://fscimage.fishersci.com/msds/17180.htm","https://fscimage.fishersci.com/msds/95260.htm","https://fscimage.fishersci.com/msds/95257.htm","/wiki/Directive_67/548/EEC","/wiki/NFPA_704","/wiki/File:NFPA_704.svg","//upload.wikimedia.org/wikipedia/commons/thumb/6/6f/NFPA_704.svg/75px-NFPA_704.svg.png","/wiki/NFPA_704#Symbolism","/wiki/NFPA_704#Symbolism","/wiki/NFPA_704#Symbolism","/wiki/NFPA_704#White_-_Special","/wiki/Flash_point","/wiki/Risk_and_Safety_Statements","/wiki/R10:_Flammable","/wiki/R20/21:_Harmful_by_inhalation_and_in_contact_with_skin","/wiki/R38:_Irritating_to_skin","/wiki/(S2):_Keep_out_of_the_reach_of_children","/wiki/S25:_Avoid_contact_with_eyes","/wiki/RTECS","/w/index.php?title=Xylene_chemdata_supplement&action=edit&redlink=1","/w/index.php?title=Xylene_chemdata_supplement&action=edit&redlink=1","/wiki/Refractive_index","/wiki/Dielectric_constant","/w/index.php?title=Xylene_chemdata_supplement&action=edit&redlink=1","/w/index.php?title=Xylene_chemdata_supplement&action=edit&redlink=1","/wiki/UV/VIS_spectroscopy","/wiki/Infrared_spectroscopy","/wiki/NMR_spectroscopy","/wiki/Mass_spectrometry","/wiki/Toluene","/wiki/Mesitylene","/wiki/Benzene","/wiki/Ethylbenzene","/wiki/Phenols","/wiki/Standard_state","/wiki/Wikipedia:Chemical_infobox","/wiki/Azeotrope","/wiki/Halocarbon","#cite_note-5","#cite_note-6","/w/index.php?title=Xylene&action=edit&section=3","/w/index.php?title=Xylene&action=edit&section=4","/wiki/Terephthalic_acid","/wiki/Dimethyl_terephthalate","/wiki/Monomer","/wiki/Polyethylene_terephthalate","/wiki/Polyester","#cite_note-7","#cite_note-8","/wiki/Phthalic_anhydride","/wiki/Isophthalic_acid","/w/index.php?title=Xylene&action=edit&section=5","/wiki/Ethylbenzene","/wiki/Printing","/wiki/Rubber","/wiki/Leather","/wiki/Rubber","#cite_note-9","/wiki/Leather","/wiki/Paint","/wiki/Varnish","/wiki/Toluene","/wiki/Conservator-restorer","#cite_note-10","/wiki/Cleaning_agent","/wiki/Steel","/wiki/Silicon_wafer","/wiki/Integrated_circuit","/wiki/Gutta_percha","/w/index.php?title=Xylene&action=edit&section=6","/wiki/Solvent","/wiki/Immersion_oil","/wiki/Objective_(optics)","/wiki/Optical_microscope","#cite_note-11","/wiki/Histology","#cite_note-12","/w/index.php?title=Xylene&action=edit&section=7","/wiki/Terephthalic_acid","/wiki/Halogenation","/wiki/Bromination","/wiki/Xylyl_bromide","/wiki/Tear_gas","/wiki/World_War_I","/w/index.php?title=Xylene&action=edit&section=8","/wiki/Median_lethal_dose","/wiki/Toluic_acid","#cite_note-Ullmann-1","/w/index.php?title=Xylene&action=edit&section=9","/wiki/Xylene_cyanol","/wiki/Gasoline","/wiki/Hydrodealkylation","/wiki/Transalkylation","/wiki/Mesitylene","/wiki/Water_pollution","/w/index.php?title=Xylene&action=edit&section=10","#cite_ref-Ullmann_1-0","#cite_ref-Ullmann_1-1","#cite_ref-Ullmann_1-2","#cite_ref-Ullmann_1-3","/wiki/Digital_object_identifier","http://dx.doi.org/10.1002%2F14356007.a28_433","#cite_ref-2","http://pubs.acs.org/doi/abs/10.1021/cen-v089n038.p018","#cite_ref-3","http://patft.uspto.gov/netacgi/nph-Parser?Sect1=PTO2&Sect2=HITOFF&p=1&u=%2Fnetahtml%2FPTO%2Fsearch-bool.html&r=1&f=G&l=50&co1=AND&d=PTXT&s1=5043502.PN.&OS=PN/5043502&RS=PN/5043502","#cite_ref-msdsXy_4-0","http://hazard.com/msds/mf/baker/baker/files/x2000.htm","#cite_ref-5","/wiki/Digital_object_identifier","http://dx.doi.org/10.1021%2Fie50542a028","/wiki/Help:CS1_errors#accessdate_missing_url","#cite_ref-6","/wiki/Digital_object_identifier","http://dx.doi.org/10.1021%2Fac980221b","#cite_ref-7","http://apps.kemi.se/flodessok/floden/kemamne_eng/xylen_eng.htm","#cite_ref-8","http://www.icis.com/chemicals/paraxylene-orthoxylene/","#cite_ref-9","http://www.bostik-amer.com/upload/download/MSDS%20Blu%20Tack.pdf","#cite_ref-10","http://www.conservation-wiki.com/index.php?title=Appendix_I","#cite_ref-11","http://www.cargille.com/immersionoilmicroscope.shtml","#cite_ref-12","/wiki/American_Society_for_Clinical_Pathology","/wiki/International_Standard_Book_Number","/wiki/Special:BookSources/9780891895817","/w/index.php?title=Xylene&action=edit&section=11","//upload.wikimedia.org/wikipedia/en/thumb/4/4a/Commons-logo.svg/30px-Commons-logo.svg.png","//commons.wikimedia.org/wiki/Category:Xylene","/wiki/File:Wikisource-logo.svg","//upload.wikimedia.org/wikipedia/commons/thumb/4/4c/Wikisource-logo.svg/12px-Wikisource-logo.svg.png","//en.wikisource.org/wiki/1911_Encyclop%C3%A6dia_Britannica/xylene","/wiki/Encyclop%C3%A6dia_Britannica_Eleventh_Edition","http://www.cdc.gov/niosh/npg/npgd0668.html","http://www.cdc.gov/niosh/npg/npgd0669.html","http://www.cdc.gov/niosh/npg/npgd0670.html","//en.wikipedia.org/w/index.php?title=Special:CentralAutoLogin/start&type=1x1&from=enwiki","http://en.wikipedia.org/w/index.php?title=Xylene&oldid=556666363","/wiki/Help:Categories","/wiki/Category:Alkylbenzenes","/wiki/Category:Hazardous_air_pollutants","/wiki/Category:Hydrocarbon_solvents","/wiki/Category:Soil_contamination","/wiki/Category:Pages_using_citations_with_accessdate_and_no_URL","/wiki/Category:Commons_category_with_local_link_same_as_on_Wikidata","/wiki/Category:Wikipedia_articles_incorporating_a_citation_from_the_1911_Encyclopaedia_Britannica_with_Wikisource_reference","/w/index.php?title=Special:UserLogin&returnto=Xylene&type=signup","/w/index.php?title=Special:UserLogin&returnto=Xylene","/wiki/Xylene","/wiki/Talk:Xylene","#","/wiki/Xylene","/w/index.php?title=Xylene&action=edit","/w/index.php?title=Xylene&action=history","#","/w/index.php","//bits.wikimedia.org/static-1.22wmf10/skins/vector/images/search-ltr.png?303-4","/wiki/Main_Page","/wiki/Main_Page","/wiki/Portal:Contents","/wiki/Portal:Featured_content","/wiki/Portal:Current_events","/wiki/Special:Random","//donate.wikimedia.org/wiki/Special:FundraiserRedirector?utm_source=donate&utm_medium=sidebar&utm_campaign=C13_en.wikipedia.org&uselang=en","/wiki/Help:Contents","/wiki/Wikipedia:About","/wiki/Wikipedia:Community_portal","/wiki/Special:RecentChanges","//en.wikipedia.org/wiki/Wikipedia:Contact_us","/wiki/Special:WhatLinksHere/Xylene","/wiki/Special:RecentChangesLinked/Xylene","/wiki/Wikipedia:File_Upload_Wizard","/wiki/Special:SpecialPages","/w/index.php?title=Xylene&oldid=556666363","/w/index.php?title=Xylene&action=info","//www.wikidata.org/wiki/Q208366","/w/index.php?title=Special:Cite&page=Xylene&id=556666363","/w/index.php?title=Special:Book&bookcmd=book_creator&referer=Xylene","/w/index.php?title=Special:Book&bookcmd=render_article&arttitle=Xylene&oldid=556666363&writer=rl","/w/index.php?title=Xylene&printable=yes","//ar.wikipedia.org/wiki/%D8%B2%D8%A7%D9%8A%D9%84%D9%8A%D9%86","//bs.wikipedia.org/wiki/Ksilol","//ca.wikipedia.org/wiki/Xil%C3%A8","//cs.wikipedia.org/wiki/Xylen","//da.wikipedia.org/wiki/Xylen","//de.wikipedia.org/wiki/Xylole","//es.wikipedia.org/wiki/Xileno","//eo.wikipedia.org/wiki/Ksilolo","//eu.wikipedia.org/wiki/Xileno","//fa.wikipedia.org/wiki/%D8%B2%D8%A7%DB%8C%D9%84%DB%8C%D9%84","//fr.wikipedia.org/wiki/Xyl%C3%A8ne","//ko.wikipedia.org/wiki/%EC%9E%90%EC%9D%BC%EB%A0%8C","//hr.wikipedia.org/wiki/Ksilen","//it.wikipedia.org/wiki/Xilene","//he.wikipedia.org/wiki/%D7%A7%D7%A1%D7%99%D7%9C%D7%9F","//lv.wikipedia.org/wiki/Ksilols","//lt.wikipedia.org/wiki/Ksilenas","//hu.wikipedia.org/wiki/Xilol","//nl.wikipedia.org/wiki/Xyleen","//ja.wikipedia.org/wiki/%E3%82%AD%E3%82%B7%E3%83%AC%E3%83%B3","//no.wikipedia.org/wiki/Xylen","//nn.wikipedia.org/wiki/Xylen","//pl.wikipedia.org/wiki/Ksyleny","//pt.wikipedia.org/wiki/Xileno","//ro.wikipedia.org/wiki/Xilen","//ru.wikipedia.org/wiki/%D0%9A%D1%81%D0%B8%D0%BB%D0%BE%D0%BB%D1%8B","//sl.wikipedia.org/wiki/Ksilen","//sr.wikipedia.org/wiki/%D0%9A%D1%81%D0%B8%D0%BB%D0%B5%D0%BD","//sh.wikipedia.org/wiki/Ksilen","//fi.wikipedia.org/wiki/Ksyleeni","//sv.wikipedia.org/wiki/Xylen","//vi.wikipedia.org/wiki/Xylen","//zh.wikipedia.org/wiki/%E4%BA%8C%E7%94%B2%E8%8B%AF","#","//www.wikidata.org/wiki/Q208366#sitelinks-wikipedia","//en.wikipedia.org/wiki/Wikipedia:Text_of_Creative_Commons_Attribution-ShareAlike_3.0_Unported_License","//creativecommons.org/licenses/by-sa/3.0/","//wikimediafoundation.org/wiki/Terms_of_Use","//wikimediafoundation.org/wiki/Privacy_policy","//www.wikimediafoundation.org/","//wikimediafoundation.org/wiki/Privacy_policy","/wiki/Wikipedia:About","/wiki/Wikipedia:General_disclaimer","//en.wikipedia.org/wiki/Wikipedia:Contact_us","//en.m.wikipedia.org/wiki/Xylene","//wikimediafoundation.org/","//bits.wikimedia.org/images/wikimedia-button.png","//www.mediawiki.org/","//bits.wikimedia.org/static-1.22wmf10/skins/common/images/poweredby_mediawiki_88x31.png","//bits.wikimedia.org/en.wikipedia.org/load.php?debug=false&lang=en&modules=site&only=scripts&skin=vector&*"],"instances":["matter","chemistry","mass","fuel","optics"],"pdf":["http://www.bostik-amer.com/upload/download/MSDS%20Blu%20Tack.pdf"],"categories":["Alkylbenzenes","Hazardous air pollutants","Hydrocarbon solvents","Soil contamination"],"headings":["Production","Properties","Applications","Safety","See also","References","External links"],"image":["//upload.wikimedia.org/wikipedia/commons/thumb/b/b3/IUPAC-cyclic.svg/446px-IUPAC-cyclic.svg.png","//upload.wikimedia.org/wikipedia/commons/thumb/6/6f/NFPA_704.svg/75px-NFPA_704.svg.png","//upload.wikimedia.org/wikipedia/en/thumb/4/4a/Commons-logo.svg/30px-Commons-logo.svg.png","//upload.wikimedia.org/wikipedia/commons/thumb/4/4c/Wikisource-logo.svg/12px-Wikisource-logo.svg.png","//en.wikipedia.org/w/index.php?title=Special:CentralAutoLogin/start&type=1x1&from=enwiki","//bits.wikimedia.org/static-1.22wmf10/skins/vector/images/search-ltr.png?303-4","//bits.wikimedia.org/images/wikimedia-button.png","//bits.wikimedia.org/static-1.22wmf10/skins/common/images/poweredby_mediawiki_88x31.png"],"tags":[["coke","fuel"],["btx","chemistry"],["pound","mass"],["phase","matter"],["objective","optics"]],"members":["phase","btx","pound","coke","objective"],"related":["Ancient_Greek_language","Aromatic_hydrocarbon","Benzene","Isomer","Molecular_formula","Petrochemical","Catalytic_reforming","Carbonization","Coke_(fuel)","Gasoline","Jet_fuel","BTX_(chemistry)","Solvent","Wood_tar","Singapore","Dehydrocyclodimerization","Methylation","Zeolite","Carbon","Methyl","Atom","IUPAC","Pound_(mass)","Imperial_gallon","Properties_of_water","IUPAC_nomenclature","Chemical_formula","Simplified_molecular_input_line_entry_specification","Molar_mass","CAS_registry_number","Density","Phase_(matter)","Soluble","Aromatic_hydrocarbon","Melting_point","Boiling_point","Viscosity","Poise","Poise","Poise","Material_safety_data_sheet","Directive_67/548/EEC","NFPA_704","Flash_point","Risk_and_Safety_Statements","RTECS","Xylene_chemdata_supplement","Refractive_index","Dielectric_constant","UV/VIS_spectroscopy","Infrared_spectroscopy","NMR_spectroscopy","Mass_spectrometry","Toluene","Mesitylene","Benzene","Ethylbenzene","Phenols","Standard_state","Azeotrope","Halocarbon","Terephthalic_acid","Dimethyl_terephthalate","Monomer","Polyethylene_terephthalate","Polyester","Phthalic_anhydride","Isophthalic_acid","Ethylbenzene","Printing","Rubber","Leather","Rubber","Leather","Paint","Varnish","Toluene","Conservator-restorer","Cleaning_agent","Steel","Silicon_wafer","Integrated_circuit","Gutta_percha","Solvent","Immersion_oil","Objective_(optics)","Optical_microscope","Histology","Terephthalic_acid","Halogenation","Bromination","Xylyl_bromide","Tear_gas","World_War_I","Toluic_acid","Xylene_cyanol","Gasoline","Hydrodealkylation","Transalkylation","Mesitylene","Water_pollution"]}