{"cursor":"5649","size":15,"audio":[],"currentlang":"en","article":"{{chembox\n| verifiedrevid = 443847685 Name = Glyoxylic acid ImageFile_Ref = ImageFile =\n| Glyoxylic acid.png ImageSize = 150px ImageName = Structure of glyoxylic acid\n| ImageFile1 = Glyoxylic-acid-3D-balls.png ImageSize1 = 160px ImageName1 = Ball-and-\n| stick model of glyoxylic acid IUPACName = oxoethanoic acid OtherNames =\n| formylformic acid; oxoethanoic acid Section1 = {{Chembox Identifiers PubChem =\n| 760 KEGG_Ref = KEGG = C00048 InChI = 1/C2H2O3/c3-1-2(4)5/h1H,(H,4,5) InChIKey\n| = HHLFWLYXYJOTON-UHFFFAOYAU ChEMBL_Ref = ChEMBL = 1162545 StdInChI_Ref =\n| StdInChI = 1S/C2H2O3/c3-1-2(4)5/h1H,(H,4,5) StdInChIKey_Ref = StdInChIKey =\n| HHLFWLYXYJOTON-UHFFFAOYSA-N CASNo_Ref = CASNo = 298-12-4 ChemSpiderID_Ref =\n| ChemSpiderID = 740 DrugBank_Ref = DrugBank = DB04343 ChEBI_Ref = ChEBI = 16891\n| SMILES = C(=O)C(=O)O\n}}\n| Section2 = {{Chembox Properties C=2|H=2|O=3 MeltingPt = 80 °C [[Merck Index]], 11th Edition,'4394''' BoilingPt = 111 °C\n| Density = 1.384 g/mL\n}}\n| Section4 = {{Chembox Related OtherAnions = glyoxylate Function = carboxylic\n| acids OtherFunctn = formic acid acetic acid glycolic acid oxalic acid propionic acid pyruvic acid OtherCpds =\n| acetaldehyde glyoxal glycolaldehyde\n }} }}\n\n'Glyoxylic acid' or 'oxoacetic acid' is an organic compound. Together with\nacetic acid, glycolic acid, and oxalic acid, glyoxylic acid is one of the\nC 2 carboxylic acids. It is a colourless solid that occurs naturally\nand is useful industrially.\n","linknr":203,"url":"Glyoxylic_acid","recorded":1363410557,"links":["/w/index.php?title=Glyoxylic_acid&action=edit","/w/index.php?title=Glyoxylic_acid&action=edit","//en.wikipedia.org/apple-touch-icon.png","//bits.wikimedia.org/favicon/wikipedia.ico","/w/opensearch_desc.php","//en.wikipedia.org/w/api.php?action=rsd","//creativecommons.org/licenses/by-sa/3.0/","/w/index.php?title=Special:RecentChanges&feed=atom","//bits.wikimedia.org/en.wikipedia.org/load.php?debug=false&lang=en&modules=ext.gadget.DRN-wizard%2CReferenceTooltips%2Ccharinsert%2Cteahouse%7Cext.wikihiero%7Cmediawiki.legacy.commonPrint%2Cshared%7Cmw.PopUpMediaTransform%7Cskins.vector&only=styles&skin=vector&*","//bits.wikimedia.org/en.wikipedia.org/load.php?debug=false&lang=en&modules=site&only=styles&skin=vector&*","//bits.wikimedia.org/en.wikipedia.org/load.php?debug=false&lang=en&modules=startup&only=scripts&skin=vector&*","//bits.wikimedia.org/geoiplookup","//meta.wikimedia.org","#mw-head","#p-search","/wiki/File:Glyoxylic_acid.png","//upload.wikimedia.org/wikipedia/commons/thumb/4/41/Glyoxylic_acid.png/150px-Glyoxylic_acid.png","/wiki/File:Glyoxylic-acid-3D-balls.png","//upload.wikimedia.org/wikipedia/commons/thumb/3/34/Glyoxylic-acid-3D-balls.png/160px-Glyoxylic-acid-3D-balls.png","/wiki/International_Union_of_Pure_and_Applied_Chemistry_nomenclature","/wiki/CAS_registry_number","http://www.commonchemistry.org/ChemicalDetail.aspx?ref=298-12-4","//upload.wikimedia.org/wikipedia/en/thumb/f/fb/Yes_check.svg/7px-Yes_check.svg.png","/wiki/PubChem","http://pubchem.ncbi.nlm.nih.gov/summary/summary.cgi?cid=760","/wiki/ChemSpider","http://www.chemspider.com/740","//upload.wikimedia.org/wikipedia/en/thumb/f/fb/Yes_check.svg/7px-Yes_check.svg.png","/wiki/DrugBank","http://www.drugbank.ca/drugs/DB04343","/wiki/KEGG","http://www.kegg.jp/entry/C00048","//upload.wikimedia.org/wikipedia/en/thumb/f/fb/Yes_check.svg/7px-Yes_check.svg.png","/wiki/ChEBI","https://www.ebi.ac.uk/chebi/searchId.do?chebiId=16891","//upload.wikimedia.org/wikipedia/en/thumb/f/fb/Yes_check.svg/7px-Yes_check.svg.png","/wiki/ChEMBL","https://www.ebi.ac.uk/chembldb/index.php/compound/inspect/CHEMBL1162545","//upload.wikimedia.org/wikipedia/en/thumb/f/fb/Yes_check.svg/7px-Yes_check.svg.png","/wiki/Jmol","http://chemapps.stolaf.edu/jmol/jmol.php?model=C%28%3DO%29C%28%3DO%29O","/wiki/Simplified_molecular-input_line-entry_system","/wiki/International_Chemical_Identifier","//upload.wikimedia.org/wikipedia/en/thumb/f/fb/Yes_check.svg/7px-Yes_check.svg.png","//upload.wikimedia.org/wikipedia/en/thumb/f/fb/Yes_check.svg/7px-Yes_check.svg.png","/wiki/Molecular_formula","/wiki/Molar_mass","/wiki/Density","/wiki/Melting_point","#cite_note-Merck-1","/wiki/Boiling_point","/wiki/Ion","/wiki/Glyoxylate","/wiki/Carboxylic_acid","/wiki/Formic_acid","/wiki/Acetic_acid","/wiki/Glycolic_acid","/wiki/Oxalic_acid","/wiki/Propionic_acid","/wiki/Pyruvic_acid","/wiki/Acetaldehyde","/wiki/Glyoxal","/wiki/Glycolaldehyde","//upload.wikimedia.org/wikipedia/en/thumb/f/fb/Yes_check.svg/14px-Yes_check.svg.png","//en.wikipedia.org/w/index.php?title=Special:ComparePages&rev1=443847685&page2=Glyoxylic+acid","/wiki/Wikipedia:WikiProject_Chemicals/Chembox_validation","//upload.wikimedia.org/wikipedia/en/thumb/f/fb/Yes_check.svg/10px-Yes_check.svg.png","//upload.wikimedia.org/wikipedia/commons/thumb/a/a2/X_mark.svg/10px-X_mark.svg.png","/wiki/Standard_state","/wiki/Wikipedia:Chemical_infobox#References","/wiki/Organic_compound","/wiki/Acetic_acid","/wiki/Glycolic_acid","/wiki/Oxalic_acid","/wiki/Carboxylic_acid","#Structure_and_nomenclature","#Preparation","#Reactions_and_uses","#Phenol_derivatives","#Safety","#References","/w/index.php?title=Glyoxylic_acid&action=edit&section=1","/wiki/Chemical_formula","/wiki/Aldehyde","/wiki/Functional_group","/wiki/Diol","#cite_note-Ull-2","#cite_note-3","//upload.wikimedia.org/math/c/b/7/cb767516db08ce4241d9659a27d5d206.png","/w/index.php?title=Glyoxylic_acid&action=edit&section=2","/wiki/Organic_oxidation","/wiki/Glyoxal","/wiki/Nitric_acid","/wiki/Ozonolysis","/wiki/Maleic_acid","#cite_note-Ull-2","/wiki/Conjugate_base","/wiki/Glyoxylate_cycle","/wiki/Organism","#cite_note-Holms-4","#cite_note-Escher_and_Widmer_F-5","/wiki/Fatty_acid","/wiki/Carbohydrate","/w/index.php?title=Glyoxylic_acid&action=edit&section=3","/wiki/Acid_dissociation_constant","//upload.wikimedia.org/math/c/b/7/cb767516db08ce4241d9659a27d5d206.png","/wiki/Disproportionation","/wiki/Condensation_reaction","/wiki/Urea","/wiki/1,2-diaminobenzene","/w/index.php?title=Glyoxylic_acid&action=edit&section=4","/wiki/Mandelic_acid","/wiki/Amoxicillin","/wiki/Phenylacetic_acid","/wiki/Atenolol","/wiki/Guaiacol","/wiki/Vanillin","#cite_note-Ull-2","/w/index.php?title=Glyoxylic_acid&action=edit&section=5","/wiki/Median_lethal_dose","/w/index.php?title=Glyoxylic_acid&action=edit&section=6","#cite_ref-Merck_1-0","/wiki/Merck_Index","#cite_ref-Ull_2-0","#cite_ref-Ull_2-1","#cite_ref-Ull_2-2","/wiki/Digital_object_identifier","http://dx.doi.org/10.1002%2F14356007.a12_495","#cite_ref-3","/wiki/Digital_object_identifier","http://dx.doi.org/10.1029%2F2008GL036212","#cite_ref-Holms_4-0","/wiki/PubMed_Identifier","//www.ncbi.nlm.nih.gov/pubmed/3332993","#cite_ref-Escher_and_Widmer_F_5-0","/wiki/PubMed_Identifier","//www.ncbi.nlm.nih.gov/pubmed/9377475","http://en.wikipedia.org/w/index.php?title=Glyoxylic_acid&oldid=540417275","/wiki/Help:Categories","/wiki/Category:Carboxylic_acids","/wiki/Category:Aldehydes","/w/index.php?title=Special:UserLogin&returnto=Glyoxylic+acid&type=signup","/w/index.php?title=Special:UserLogin&returnto=Glyoxylic+acid","/wiki/Glyoxylic_acid","/wiki/Talk:Glyoxylic_acid","#","/wiki/Glyoxylic_acid","/w/index.php?title=Glyoxylic_acid&action=edit","/w/index.php?title=Glyoxylic_acid&action=history","#","/w/index.php","//bits.wikimedia.org/static-1.21wmf10/skins/vector/images/search-ltr.png?303-4","/wiki/Main_Page","/wiki/Main_Page","/wiki/Portal:Contents","/wiki/Portal:Featured_content","/wiki/Portal:Current_events","/wiki/Special:Random","//donate.wikimedia.org/wiki/Special:FundraiserRedirector?utm_source=donate&utm_medium=sidebar&utm_campaign=C13_en.wikipedia.org&uselang=en","/wiki/Help:Contents","/wiki/Wikipedia:About","/wiki/Wikipedia:Community_portal","/wiki/Special:RecentChanges","/wiki/Wikipedia:Contact_us","/wiki/Special:WhatLinksHere/Glyoxylic_acid","/wiki/Special:RecentChangesLinked/Glyoxylic_acid","/wiki/Wikipedia:File_Upload_Wizard","/wiki/Special:SpecialPages","/w/index.php?title=Glyoxylic_acid&oldid=540417275","/w/index.php?title=Glyoxylic_acid&action=info","/w/index.php?title=Special:Cite&page=Glyoxylic_acid&id=540417275","/w/index.php?title=Special:Book&bookcmd=book_creator&referer=Glyoxylic+acid","/w/index.php?title=Special:Book&bookcmd=render_article&arttitle=Glyoxylic+acid&oldid=540417275&writer=rl","/w/index.php?title=Glyoxylic_acid&printable=yes","//ca.wikipedia.org/wiki/%C3%80cid_gliox%C3%ADlic","//de.wikipedia.org/wiki/Glyoxyls%C3%A4ure","//fa.wikipedia.org/wiki/%DA%AF%D9%84%DB%8C%D9%88%DA%A9%D8%B3%DB%8C%D9%84%DB%8C%DA%A9_%D8%A7%D8%B3%DB%8C%D8%AF","//fr.wikipedia.org/wiki/Acide_glyoxylique","//id.wikipedia.org/wiki/Asam_glioksilat","//it.wikipedia.org/wiki/Acido_gliossilico","//lv.wikipedia.org/wiki/Glioksilsk%C4%81be","//nl.wikipedia.org/wiki/Glyoxylzuur","//ja.wikipedia.org/wiki/%E3%82%B0%E3%83%AA%E3%82%AA%E3%82%AD%E3%82%B7%E3%83%AB%E9%85%B8","//no.wikipedia.org/wiki/Glyoksalsyre","//pl.wikipedia.org/wiki/Kwas_glioksalowy","//pt.wikipedia.org/wiki/%C3%81cido_gliox%C3%ADlico","//zh.wikipedia.org/wiki/%E4%B9%99%E9%86%9B%E9%85%B8","//www.wikidata.org/wiki/Special:ItemByTitle/enwiki/Glyoxylic acid","//en.wikipedia.org/wiki/Wikipedia:Text_of_Creative_Commons_Attribution-ShareAlike_3.0_Unported_License","//creativecommons.org/licenses/by-sa/3.0/","//wikimediafoundation.org/wiki/Terms_of_Use","//www.wikimediafoundation.org/","//en.wikipedia.org/wiki/Wikipedia:Contact_us","//wikimediafoundation.org/wiki/Privacy_policy","/wiki/Wikipedia:About","/wiki/Wikipedia:General_disclaimer","http://en.m.wikipedia.org/wiki/Glyoxylic_acid","//wikimediafoundation.org/","//bits.wikimedia.org/images/wikimedia-button.png","//www.mediawiki.org/","//bits.wikimedia.org/static-1.21wmf10/skins/common/images/poweredby_mediawiki_88x31.png","//bits.wikimedia.org/en.wikipedia.org/load.php?debug=false&lang=en&modules=skins.vector&only=scripts&skin=vector&*","/w/index.php?title=MediaWiki:Gadget-ReferenceTooltips.js&action=raw&ctype=text/javascript&508635914","//bits.wikimedia.org/en.wikipedia.org/load.php?debug=false&lang=en&modules=site&only=scripts&skin=vector&*"],"instances":[],"pdf":[],"categories":["Carboxylic acids","Aldehydes"],"headings":["Structure and nomenclature","Preparation","Reactions and uses","Safety","References"],"image":["//upload.wikimedia.org/wikipedia/commons/thumb/4/41/Glyoxylic_acid.png/150px-Glyoxylic_acid.png","//upload.wikimedia.org/wikipedia/commons/thumb/3/34/Glyoxylic-acid-3D-balls.png/160px-Glyoxylic-acid-3D-balls.png","//upload.wikimedia.org/wikipedia/en/thumb/f/fb/Yes_check.svg/7px-Yes_check.svg.png","//upload.wikimedia.org/wikipedia/en/thumb/f/fb/Yes_check.svg/7px-Yes_check.svg.png","//upload.wikimedia.org/wikipedia/en/thumb/f/fb/Yes_check.svg/7px-Yes_check.svg.png","//upload.wikimedia.org/wikipedia/en/thumb/f/fb/Yes_check.svg/7px-Yes_check.svg.png","//upload.wikimedia.org/wikipedia/en/thumb/f/fb/Yes_check.svg/7px-Yes_check.svg.png","//upload.wikimedia.org/wikipedia/en/thumb/f/fb/Yes_check.svg/7px-Yes_check.svg.png","//upload.wikimedia.org/wikipedia/en/thumb/f/fb/Yes_check.svg/7px-Yes_check.svg.png","//upload.wikimedia.org/wikipedia/en/thumb/f/fb/Yes_check.svg/14px-Yes_check.svg.png","//upload.wikimedia.org/wikipedia/en/thumb/f/fb/Yes_check.svg/10px-Yes_check.svg.png","//upload.wikimedia.org/wikipedia/commons/thumb/a/a2/X_mark.svg/10px-X_mark.svg.png","//upload.wikimedia.org/math/c/b/7/cb767516db08ce4241d9659a27d5d206.png","//upload.wikimedia.org/math/c/b/7/cb767516db08ce4241d9659a27d5d206.png","//bits.wikimedia.org/static-1.21wmf10/skins/vector/images/search-ltr.png?303-4","//bits.wikimedia.org/images/wikimedia-button.png","//bits.wikimedia.org/static-1.21wmf10/skins/common/images/poweredby_mediawiki_88x31.png"],"tags":[],"members":[],"related":["Glyoxylate","Carboxylic_acid","Formic_acid","Acetic_acid","Glycolic_acid","Oxalic_acid","Propionic_acid","Pyruvic_acid","Acetaldehyde","Glyoxal","Glycolaldehyde","Organic_compound","Acetic_acid","Glycolic_acid","Oxalic_acid","Carboxylic_acid","Chemical_formula","Aldehyde","Functional_group","Diol","Organic_oxidation","Glyoxal","Nitric_acid","Ozonolysis","Maleic_acid","Conjugate_base","Glyoxylate_cycle","Organism","Fatty_acid","Carbohydrate","Acid_dissociation_constant","Disproportionation","Condensation_reaction","Urea","1,2-diaminobenzene","Mandelic_acid","Amoxicillin","Phenylacetic_acid","Atenolol","Guaiacol","Vanillin"]}