{"cursor":"2251","size":15,"audio":[],"currentlang":"en","article":"{{chembox\n| verifiedrevid = 443317671 Reference= [http://www.sigmaaldrich.com/catalog-\n| /ProductDetail.do?N4=100242|ALDRICH&N5=SEARCH_CONCAT_PNO|BRAND_KEY&F=SPEC 3-\n| Aminophenol] at Sigma-Aldrich. ImageFileL1=M-Aminophenol.svg\n| ImageSizeL1=120px ImageFileR1 = 3-Aminophenol-3D-spacefill.png ImageSizeR1 =\n| 120 ImageAltR1 = 3-Aminophenol molecule IUPACName=3-Aminophenol OtherNames=m-\n| Aminophenol; 3-Hydroxyaniline; m-Hydroxyaniline Section1={{Chembox Identifiers\n| ChemSpiderID_Ref = ChemSpiderID = 11080 UNII_Ref = UNII = L3WTS6QT82 KEGG_Ref\n| = KEGG = C05058 InChI = 1/C6H7NO/c7-5-2-1-3-6(8)4-5/h1-4,8H,7H2 InChIKey = CWLKGDAVCFYWJK-\n| UHFFFAOYAM ChEMBL_Ref = ChEMBL = 269755 ChEMBL2 = 376136 StdInChI_Ref =\n| StdInChI = 1S/C6H7NO/c7-5-2-1-3-6(8)4-5/h1-4,8H,7H2 StdInChIKey_Ref =\n| StdInChIKey = CWLKGDAVCFYWJK-UHFFFAOYSA-N CASNo_Ref = CASNo=591-27-5\n| PubChem=11568 EINECS = 209-711-2 ChEBI_Ref = ChEBI = 28924 SMILES =\n| Oc1cccc(N)c1\n}} |Section2={{Chembox Properties\n|  Formula=C 6H 7NO MolarMass=109.13 g/mol Appearance=\n|  Density= MeltingPt=120-124 °C BoilingPt=164 °C at 11 mmHg Solubility=\n  }} |Section3={{Chembox Hazards\n|  MainHazards= FlashPt= Autoignition= RPhrases= SPhrases=\n  }} }}\n\n'3-Aminophenol' is a compound with formula\nC 6H 4(NH 2)(OH). It is an aromatic amine and\naromatic alcohol. It is an isomer of 2-aminophenol and 4-aminophenol. It can be\nprepared by caustic fusion of metanilic acid (3-aminobenzenesulfonic acid).\n\nOne of the most relevant applications of the substance is the synthesis of 3-\n(diethylamino)phenol, key intermediate for the preparation of several\nfluorescent dyes (e.g., Rhodamine B).\n","linknr":143,"url":"3-Aminophenol","recorded":1374521987,"links":["/w/index.php?title=3-Aminophenol&action=edit","/w/index.php?title=3-Aminophenol&action=edit","//bits.wikimedia.org/favicon/wikipedia.ico","/w/opensearch_desc.php","//en.wikipedia.org/w/api.php?action=rsd","//creativecommons.org/licenses/by-sa/3.0/","/w/index.php?title=Special:RecentChanges&feed=atom","//bits.wikimedia.org/en.wikipedia.org/load.php?debug=false&lang=en&modules=ext.gadget.DRN-wizard%2CReferenceTooltips%2Ccharinsert%2Cteahouse%7Cext.rtlcite%2Cwikihiero%7Cext.uls.nojs%7Cmediawiki.legacy.commonPrint%2Cshared%7Cmw.PopUpMediaTransform%7Cskins.vector&only=styles&skin=vector&*","//bits.wikimedia.org/en.wikipedia.org/load.php?debug=false&lang=en&modules=site&only=styles&skin=vector&*","//bits.wikimedia.org/en.wikipedia.org/load.php?debug=false&lang=en&modules=startup&only=scripts&skin=vector&*","//bits.wikimedia.org/geoiplookup","//meta.wikimedia.org","#mw-navigation","#p-search","#cite_note-1","/wiki/File:M-Aminophenol.svg","//upload.wikimedia.org/wikipedia/commons/thumb/f/fd/M-Aminophenol.svg/120px-M-Aminophenol.svg.png","/wiki/File:3-Aminophenol-3D-spacefill.png","//upload.wikimedia.org/wikipedia/commons/thumb/1/19/3-Aminophenol-3D-spacefill.png/120px-3-Aminophenol-3D-spacefill.png","/wiki/International_Union_of_Pure_and_Applied_Chemistry_nomenclature","/wiki/CAS_registry_number","http://www.commonchemistry.org/ChemicalDetail.aspx?ref=591-27-5","//upload.wikimedia.org/wikipedia/en/thumb/f/fb/Yes_check.svg/7px-Yes_check.svg.png","/wiki/PubChem","http://pubchem.ncbi.nlm.nih.gov/summary/summary.cgi?cid=11568","/wiki/ChemSpider","http://www.chemspider.com/11080","//upload.wikimedia.org/wikipedia/en/thumb/f/fb/Yes_check.svg/7px-Yes_check.svg.png","/wiki/Unique_Ingredient_Identifier","http://fdasis.nlm.nih.gov/srs/srsdirect.jsp?regno=L3WTS6QT82","//upload.wikimedia.org/wikipedia/en/thumb/f/fb/Yes_check.svg/7px-Yes_check.svg.png","/wiki/EC_number_(chemistry)","http://esis.jrc.ec.europa.eu/lib/einecs_IS_reponse.php?genre=ECNO&entree=209-711-2","/wiki/KEGG","http://www.kegg.jp/entry/C05058","//upload.wikimedia.org/wikipedia/en/thumb/f/fb/Yes_check.svg/7px-Yes_check.svg.png","/wiki/ChEBI","https://www.ebi.ac.uk/chebi/searchId.do?chebiId=28924","//upload.wikimedia.org/wikipedia/en/thumb/f/fb/Yes_check.svg/7px-Yes_check.svg.png","/wiki/ChEMBL","https://www.ebi.ac.uk/chembldb/index.php/compound/inspect/CHEMBL269755","//upload.wikimedia.org/wikipedia/en/thumb/f/fb/Yes_check.svg/7px-Yes_check.svg.png","https://www.ebi.ac.uk/chembldb/index.php/compound/inspect/CHEMBL376136","/wiki/Jmol","http://chemapps.stolaf.edu/jmol/jmol.php?model=Oc1cccc%28N%29c1","/wiki/Simplified_molecular-input_line-entry_system","/wiki/International_Chemical_Identifier","//upload.wikimedia.org/wikipedia/en/thumb/f/fb/Yes_check.svg/7px-Yes_check.svg.png","//upload.wikimedia.org/wikipedia/en/thumb/f/fb/Yes_check.svg/7px-Yes_check.svg.png","/wiki/Chemical_formula","/wiki/Molar_mass","/wiki/Melting_point","/wiki/Boiling_point","/wiki/List_of_R-phrases","/wiki/R20/22:_Harmful_by_inhalation_and_if_swallowed","/wiki/R51/53:_Toxic_to_aquatic_organisms,_may_cause_long-term_adverse_effects_in_the_aquatic_environment","/wiki/List_of_S-phrases","/wiki/S28:_After_contact_with_skin,_wash_immediately_with_plenty_of_..._(to_be_specified_by_the_manufacturer)","/wiki/S61:_Avoid_release_to_the_environment._Refer_to_special_instructions/safety_data_sheet","//upload.wikimedia.org/wikipedia/en/thumb/f/fb/Yes_check.svg/14px-Yes_check.svg.png","//en.wikipedia.org/w/index.php?title=Special:ComparePages&rev1=443317671&page2=3-Aminophenol","/wiki/Wikipedia:WikiProject_Chemicals/Chembox_validation","//upload.wikimedia.org/wikipedia/en/thumb/f/fb/Yes_check.svg/10px-Yes_check.svg.png","//upload.wikimedia.org/wikipedia/commons/thumb/a/a2/X_mark.svg/10px-X_mark.svg.png","/wiki/Standard_state","/wiki/Wikipedia:Chemical_infobox#References","/wiki/Compound_(chemistry)","/wiki/Aromatic_amine","/wiki/Phenol","/wiki/Isomer","/wiki/2-Aminophenol","/wiki/4-Aminophenol","/wiki/Rhodamine_B","/w/index.php?title=3-Aminophenol&action=edit&section=1","#cite_ref-1","http://www.sigmaaldrich.com/catalog/ProductDetail.do?N4=100242%7CALDRICH&N5=SEARCH_CONCAT_PNO%7CBRAND_KEY&F=SPEC","/wiki/Sigma-Aldrich","/wiki/File:Benzene-3D-vdW.png","//upload.wikimedia.org/wikipedia/commons/thumb/9/97/Benzene-3D-vdW.png/40px-Benzene-3D-vdW.png","/wiki/Aromatic","/wiki/Wikipedia:Stub","//en.wikipedia.org/w/index.php?title=3-Aminophenol&action=edit","/wiki/Template:Aromatic-stub","/wiki/Template_talk:Aromatic-stub","//en.wikipedia.org/w/index.php?title=Template:Aromatic-stub&action=edit","//en.wikipedia.org/w/index.php?title=Special:CentralAutoLogin/start&type=1x1&from=enwiki","http://en.wikipedia.org/w/index.php?title=3-Aminophenol&oldid=553663626","/wiki/Help:Categories","/wiki/Category:Aromatic_compound_stubs","/wiki/Category:Anilines","/wiki/Category:Phenols","/w/index.php?title=Special:UserLogin&returnto=3-Aminophenol&type=signup","/w/index.php?title=Special:UserLogin&returnto=3-Aminophenol","/wiki/3-Aminophenol","/wiki/Talk:3-Aminophenol","#","/wiki/3-Aminophenol","/w/index.php?title=3-Aminophenol&action=edit","/w/index.php?title=3-Aminophenol&action=history","#","/w/index.php","//bits.wikimedia.org/static-1.22wmf10/skins/vector/images/search-ltr.png?303-4","/wiki/Main_Page","/wiki/Main_Page","/wiki/Portal:Contents","/wiki/Portal:Featured_content","/wiki/Portal:Current_events","/wiki/Special:Random","//donate.wikimedia.org/wiki/Special:FundraiserRedirector?utm_source=donate&utm_medium=sidebar&utm_campaign=C13_en.wikipedia.org&uselang=en","/wiki/Help:Contents","/wiki/Wikipedia:About","/wiki/Wikipedia:Community_portal","/wiki/Special:RecentChanges","//en.wikipedia.org/wiki/Wikipedia:Contact_us","/wiki/Special:WhatLinksHere/3-Aminophenol","/wiki/Special:RecentChangesLinked/3-Aminophenol","/wiki/Wikipedia:File_Upload_Wizard","/wiki/Special:SpecialPages","/w/index.php?title=3-Aminophenol&oldid=553663626","/w/index.php?title=3-Aminophenol&action=info","//www.wikidata.org/wiki/Q779427","/w/index.php?title=Special:Cite&page=3-Aminophenol&id=553663626","/w/index.php?title=Special:Book&bookcmd=book_creator&referer=3-Aminophenol","/w/index.php?title=Special:Book&bookcmd=render_article&arttitle=3-Aminophenol&oldid=553663626&writer=rl","/w/index.php?title=3-Aminophenol&printable=yes","//fa.wikipedia.org/wiki/%DB%B3-%D8%A2%D9%85%DB%8C%D9%86%D9%88%D9%81%D9%86%D9%88%D9%84","//nl.wikipedia.org/wiki/3-aminofenol","#","//www.wikidata.org/wiki/Q779427#sitelinks-wikipedia","//en.wikipedia.org/wiki/Wikipedia:Text_of_Creative_Commons_Attribution-ShareAlike_3.0_Unported_License","//creativecommons.org/licenses/by-sa/3.0/","//wikimediafoundation.org/wiki/Terms_of_Use","//wikimediafoundation.org/wiki/Privacy_policy","//www.wikimediafoundation.org/","//wikimediafoundation.org/wiki/Privacy_policy","/wiki/Wikipedia:About","/wiki/Wikipedia:General_disclaimer","//en.wikipedia.org/wiki/Wikipedia:Contact_us","//en.m.wikipedia.org/wiki/3-Aminophenol","//wikimediafoundation.org/","//bits.wikimedia.org/images/wikimedia-button.png","//www.mediawiki.org/","//bits.wikimedia.org/static-1.22wmf10/skins/common/images/poweredby_mediawiki_88x31.png","//bits.wikimedia.org/en.wikipedia.org/load.php?debug=false&lang=en&modules=site&only=scripts&skin=vector&*"],"instances":["chemistry"],"pdf":[],"categories":["Anilines","Phenols"],"headings":["References"],"image":["//upload.wikimedia.org/wikipedia/commons/thumb/f/fd/M-Aminophenol.svg/120px-M-Aminophenol.svg.png","//upload.wikimedia.org/wikipedia/commons/thumb/1/19/3-Aminophenol-3D-spacefill.png/120px-3-Aminophenol-3D-spacefill.png","//upload.wikimedia.org/wikipedia/en/thumb/f/fb/Yes_check.svg/7px-Yes_check.svg.png","//upload.wikimedia.org/wikipedia/en/thumb/f/fb/Yes_check.svg/7px-Yes_check.svg.png","//upload.wikimedia.org/wikipedia/en/thumb/f/fb/Yes_check.svg/7px-Yes_check.svg.png","//upload.wikimedia.org/wikipedia/en/thumb/f/fb/Yes_check.svg/7px-Yes_check.svg.png","//upload.wikimedia.org/wikipedia/en/thumb/f/fb/Yes_check.svg/7px-Yes_check.svg.png","//upload.wikimedia.org/wikipedia/en/thumb/f/fb/Yes_check.svg/7px-Yes_check.svg.png","//upload.wikimedia.org/wikipedia/en/thumb/f/fb/Yes_check.svg/7px-Yes_check.svg.png","//upload.wikimedia.org/wikipedia/en/thumb/f/fb/Yes_check.svg/7px-Yes_check.svg.png","//upload.wikimedia.org/wikipedia/en/thumb/f/fb/Yes_check.svg/14px-Yes_check.svg.png","//upload.wikimedia.org/wikipedia/en/thumb/f/fb/Yes_check.svg/10px-Yes_check.svg.png","//upload.wikimedia.org/wikipedia/commons/thumb/a/a2/X_mark.svg/10px-X_mark.svg.png","//upload.wikimedia.org/wikipedia/commons/thumb/9/97/Benzene-3D-vdW.png/40px-Benzene-3D-vdW.png","//en.wikipedia.org/w/index.php?title=Special:CentralAutoLogin/start&type=1x1&from=enwiki","//bits.wikimedia.org/static-1.22wmf10/skins/vector/images/search-ltr.png?303-4","//bits.wikimedia.org/images/wikimedia-button.png","//bits.wikimedia.org/static-1.22wmf10/skins/common/images/poweredby_mediawiki_88x31.png"],"tags":[["compound","chemistry"]],"members":["compound"],"related":["Sigma-Aldrich","Compound_(chemistry)","Aromatic_amine","Phenol","Isomer","2-Aminophenol","4-Aminophenol","Rhodamine_B"]}