{"cursor":"5541","size":15,"audio":[],"currentlang":"en","article":"{{chembox\n| Verifiedfields = changed Watchedfields = changed verifiedrevid = 477163163\n| Name = Selenium tetrachloride ImageFile1 = SeCl4-from-alpha-xtal-1981-CM-3D-\n| ellipsoids.png ImageFile2 = TeCl4structure.jpg ImageSize2 = ImageName2 =\n| IUPACName = Selenium tetrachloride OtherNames = Section1 = {{Chembox\n| Identifiers ChemSpiderID_Ref = ChemSpiderID = 59590 InChI = 1/Cl4Se/c1-5(2,3)4\n| InChIKey = LNBXMNQCXXEHFT-UHFFFAOYAD SMILES = Cl[Se](Cl)(Cl)Cl StdInChI_Ref =\n| StdInChI = 1S/Cl4Se/c1-5(2,3)4 StdInChIKey_Ref = StdInChIKey = LNBXMNQCXXEHFT-UHFFFAOYSA-\n| N CASNo_Ref = CASNo = 10026-03-6 RTECS = VS7875000 PubChem = 66205\n}}\n| Section2 = {{Chembox Properties Formula = SeCl 4 MolarMass = 220.771\n| g/mol Appearance = white to yellow crystals Density = 2.6 g/cm³, solid\n| Solubility = decomposes in water MeltingPt = sublimes at 191.4°C\n{{Cite book | last = Lide | first = David R. | year = 1998\n | title = Handbook of Chemistry and Physics edition = 87 | publication-place =\n | Boca Raton, FL | publisher = CRC Press | isbn = 0-8493-0594-2 pages = 487 url\n | = http://books.google.com/?id=lFjg0L-uOxoC&pg=PT872 | accessdate = 2008-07-02\n | | postscript = \n}}\n|   BoilingPt =\n}}\n| Section3 = {{Chembox Structure CrystalStruct = Monoclinic, mS80 SpaceGroup =\n| C12/c1, No. 15 MolShape = Seesaw (gas phase)\n  }}\n| Section7 = {{Chembox Hazards NFPA-H = 3 NFPA-F = 0 NFPA-R = 0 EUClass = Toxic\n| ('T'), Dangerous for the environment ('N') RPhrases = , , SPhrases = , , , ,\n| \n\n|   FlashPt = non-flammable\n  }}\n| Section8 = {{Chembox Related OtherAnions = Selenium tetrafluoride Selenium tetrabromide Selenium dioxide OtherCations = Dichlorine\n| monoxide Sulfur tetrachloride Tellurium tetrachloride\n  }} }}\n\n'Selenium tetrachloride' is the inorganic compound composed with the formula\nSeCl 4. This compound exists as yellow to white volatile solid. It is\none of two commonly available selenium chlorides, the other example being\nselenium monochloride, Se 2Cl 2. SeCl 4 is used in\nthe synthesis of other selenium compounds.\n","linknr":210,"url":"Selenium_tetrachloride","recorded":1374961949,"links":["/w/index.php?title=Selenium_tetrachloride&action=edit","/w/index.php?title=Selenium_tetrachloride&action=edit","//bits.wikimedia.org/favicon/wikipedia.ico","/w/opensearch_desc.php","//en.wikipedia.org/w/api.php?action=rsd","//creativecommons.org/licenses/by-sa/3.0/","/w/index.php?title=Special:RecentChanges&feed=atom","//bits.wikimedia.org/en.wikipedia.org/load.php?debug=false&lang=en&modules=ext.gadget.DRN-wizard%2CReferenceTooltips%2Ccharinsert%2Cteahouse%7Cext.rtlcite%2Cwikihiero%7Cext.uls.nojs%7Cmediawiki.legacy.commonPrint%2Cshared%7Cmw.PopUpMediaTransform%7Cskins.vector&only=styles&skin=vector&*","//bits.wikimedia.org/en.wikipedia.org/load.php?debug=false&lang=en&modules=site&only=styles&skin=vector&*","//bits.wikimedia.org/en.wikipedia.org/load.php?debug=false&lang=en&modules=startup&only=scripts&skin=vector&*","//bits.wikimedia.org/geoiplookup","//meta.wikimedia.org","#mw-navigation","#p-search","/wiki/File:SeCl4-from-alpha-xtal-1981-CM-3D-ellipsoids.png","//upload.wikimedia.org/wikipedia/commons/thumb/2/20/SeCl4-from-alpha-xtal-1981-CM-3D-ellipsoids.png/200px-SeCl4-from-alpha-xtal-1981-CM-3D-ellipsoids.png","/wiki/File:TeCl4structure.jpg","//upload.wikimedia.org/wikipedia/commons/thumb/0/09/TeCl4structure.jpg/200px-TeCl4structure.jpg","/wiki/International_Union_of_Pure_and_Applied_Chemistry_nomenclature","/wiki/CAS_registry_number","http://www.commonchemistry.org/ChemicalDetail.aspx?ref=10026-03-6","//upload.wikimedia.org/wikipedia/commons/thumb/a/a2/X_mark.svg/7px-X_mark.svg.png","/wiki/PubChem","http://pubchem.ncbi.nlm.nih.gov/summary/summary.cgi?cid=66205","/wiki/ChemSpider","http://www.chemspider.com/59590","//upload.wikimedia.org/wikipedia/en/thumb/f/fb/Yes_check.svg/7px-Yes_check.svg.png","/wiki/RTECS","/wiki/Jmol","http://chemapps.stolaf.edu/jmol/jmol.php?model=Cl%5BSe%5D%28Cl%29%28Cl%29Cl","/wiki/Simplified_molecular-input_line-entry_system","/wiki/International_Chemical_Identifier","//upload.wikimedia.org/wikipedia/en/thumb/f/fb/Yes_check.svg/7px-Yes_check.svg.png","//upload.wikimedia.org/wikipedia/en/thumb/f/fb/Yes_check.svg/7px-Yes_check.svg.png","/wiki/Chemical_formula","/wiki/Molar_mass","/wiki/Density","/wiki/Melting_point","/wiki/Sublimation_(chemistry)","#cite_note-hand-1","/wiki/Solubility","/wiki/Water","/wiki/Crystal_structure","/wiki/Monoclinic","/wiki/Pearson_symbol","/wiki/Space_group","/wiki/Molecular_geometry","/wiki/Wikipedia:Citation_needed","/wiki/Dangerous_Substances_Directive_(67/548/EEC)","/wiki/List_of_R-phrases","/wiki/R23/25:_Toxic_by_inhalation_and_if_swallowed","/wiki/R33:_Danger_of_cumulative_effects","/wiki/R50/53:_Very_toxic_to_aquatic_organisms,_may_cause_long-term_adverse_effects_in_the_aquatic_environment","/wiki/List_of_S-phrases","/wiki/S20/21:_When_using_do_not_eat,_drink_or_smoke","/wiki/S28:_After_contact_with_skin,_wash_immediately_with_plenty_of_..._(to_be_specified_by_the_manufacturer)","/wiki/S45:_In_case_of_accident_or_if_you_feel_unwell_seek_medical_advice_immediately_(show_the_label_where_possible)","/wiki/S60:_This_material_and_its_container_must_be_disposed_of_as_hazardous_waste","/wiki/S61:_Avoid_release_to_the_environment._Refer_to_special_instructions/safety_data_sheet","#cite_note-sa-2","/wiki/NFPA_704","/wiki/File:NFPA_704.svg","//upload.wikimedia.org/wikipedia/commons/thumb/6/6f/NFPA_704.svg/75px-NFPA_704.svg.png","/wiki/Flash_point","/wiki/Ion","/wiki/Selenium_tetrafluoride","/w/index.php?title=Selenium_tetrabromide&action=edit&redlink=1","/wiki/Selenium_dioxide","/wiki/Ion","/wiki/Dichlorine_monoxide","/wiki/Sulfur_tetrachloride","/wiki/Tellurium_tetrachloride","//upload.wikimedia.org/wikipedia/commons/thumb/a/a2/X_mark.svg/14px-X_mark.svg.png","//en.wikipedia.org/w/index.php?title=Special:ComparePages&rev1=477163163&page2=Selenium+tetrachloride","/wiki/Wikipedia:WikiProject_Chemicals/Chembox_validation","//upload.wikimedia.org/wikipedia/en/thumb/f/fb/Yes_check.svg/10px-Yes_check.svg.png","//upload.wikimedia.org/wikipedia/commons/thumb/a/a2/X_mark.svg/10px-X_mark.svg.png","/wiki/Standard_state","/wiki/Wikipedia:Chemical_infobox#References","/wiki/Inorganic_compound","/wiki/Chemical_formula","/wiki/Selenium_chloride_(disambiguation)","/wiki/Selenium_monochloride","/wiki/Selenium","/w/index.php?title=Selenium_tetrachloride&action=edit&section=1","/wiki/Selenium","/wiki/Chlorine","#cite_note-3","/wiki/Sublimation_(phase_transition)","/wiki/Cubane","/wiki/VSEPR_theory","/wiki/Hypervalent_molecule","/wiki/Seesaw_molecular_geometry","/wiki/Crystal_structure","/wiki/Trigonal_pyramidal_molecular_geometry","#cite_note-4","/w/index.php?title=Selenium_tetrachloride&action=edit&section=2","/wiki/Triphenylstibine","/wiki/Selenous_acid","/wiki/Hydrochloric_acid","/wiki/Acid","#cite_note-Greenwood-5","/wiki/Wikipedia:Citing_sources","/wiki/Selenium_dioxide","/wiki/Selenium_oxychloride","#cite_note-Greenwood-5","/wiki/Wikipedia:Citing_sources","/w/index.php?title=Selenium_tetrachloride&action=edit&section=3","#cite_ref-hand_1-0","http://books.google.com/?id=lFjg0L-uOxoC&pg=PT872","/wiki/International_Standard_Book_Number","/wiki/Special:BookSources/0-8493-0594-2","#cite_ref-sa_2-0","http://www.sigmaaldrich.com/catalog/search/ProductDetail/ALDRICH/323527/","#cite_ref-3","/wiki/Digital_object_identifier","http://dx.doi.org/10.1002%2F9780470132364.ch33","/wiki/International_Standard_Book_Number","/wiki/Special:BookSources/9780470132364","//en.wikipedia.org/w/index.php?title=Template:Cite_doi/10.1002.2F9780470132364.ch33&action=edit&editintro=Template:Cite_doi/editintro2","#cite_ref-4","#cite_ref-Greenwood_5-0","#cite_ref-Greenwood_5-1","/wiki/Norman_Greenwood","/wiki/Butterworth%E2%80%93Heinemann","/wiki/International_Standard_Book_Number","/wiki/Special:BookSources/0080379419","/wiki/Template:Selenium_compounds","/wiki/Template_talk:Selenium_compounds","//en.wikipedia.org/w/index.php?title=Template:Selenium_compounds&action=edit","/wiki/Selenium","/wiki/Selenium_disulfide","/wiki/Selenium_hexasulfide","/wiki/Selenium_monochloride","/wiki/Selenium_disulfide#Other_selenium_sulfides","/wiki/Selenium_tetrafluoride","/wiki/Selenium_dioxide","/wiki/Selenium_oxybromide","/wiki/Selenium_oxydichloride","/wiki/Selenium_hexafluoride","/wiki/Selenium_trioxide","/wiki/Selenoyl_fluoride","//en.wikipedia.org/w/index.php?title=Special:CentralAutoLogin/start&type=1x1&from=enwiki","http://en.wikipedia.org/w/index.php?title=Selenium_tetrachloride&oldid=556380804","/wiki/Help:Categories","/wiki/Category:Selenium_compounds","/wiki/Category:Chlorides","/wiki/Category:Nonmetal_halides","/wiki/Category:Chalcohalides","/wiki/Category:Articles_with_changed_CASNo","/wiki/Category:All_articles_with_unsourced_statements","/wiki/Category:Articles_with_unsourced_statements_from_February_2012","/wiki/Category:Chemboxes_which_contain_changes_to_verified_fields","/wiki/Category:Chemboxes_which_contain_changes_to_watched_fields","/wiki/Category:Wikipedia_articles_needing_page_number_citations_from_April_2013","/w/index.php?title=Special:UserLogin&returnto=Selenium+tetrachloride&type=signup","/w/index.php?title=Special:UserLogin&returnto=Selenium+tetrachloride","/wiki/Selenium_tetrachloride","/wiki/Talk:Selenium_tetrachloride","#","/wiki/Selenium_tetrachloride","/w/index.php?title=Selenium_tetrachloride&action=edit","/w/index.php?title=Selenium_tetrachloride&action=history","#","/w/index.php","//bits.wikimedia.org/static-1.22wmf11/skins/vector/images/search-ltr.png?303-4","/wiki/Main_Page","/wiki/Main_Page","/wiki/Portal:Contents","/wiki/Portal:Featured_content","/wiki/Portal:Current_events","/wiki/Special:Random","//donate.wikimedia.org/wiki/Special:FundraiserRedirector?utm_source=donate&utm_medium=sidebar&utm_campaign=C13_en.wikipedia.org&uselang=en","/wiki/Help:Contents","/wiki/Wikipedia:About","/wiki/Wikipedia:Community_portal","/wiki/Special:RecentChanges","//en.wikipedia.org/wiki/Wikipedia:Contact_us","/wiki/Special:WhatLinksHere/Selenium_tetrachloride","/wiki/Special:RecentChangesLinked/Selenium_tetrachloride","/wiki/Wikipedia:File_Upload_Wizard","/wiki/Special:SpecialPages","/w/index.php?title=Selenium_tetrachloride&oldid=556380804","/w/index.php?title=Selenium_tetrachloride&action=info","//www.wikidata.org/wiki/Q2207705","/w/index.php?title=Special:Cite&page=Selenium_tetrachloride&id=556380804","/w/index.php?title=Special:Book&bookcmd=book_creator&referer=Selenium+tetrachloride","/w/index.php?title=Special:Book&bookcmd=render_article&arttitle=Selenium+tetrachloride&oldid=556380804&writer=rl","/w/index.php?title=Selenium_tetrachloride&printable=yes","//fa.wikipedia.org/wiki/%D8%B3%D9%84%D9%86%DB%8C%D9%88%D9%85_%D8%AA%D8%AA%D8%B1%D8%A7%DA%A9%D9%84%D8%B1%DB%8C%D8%AF","//nl.wikipedia.org/wiki/Seleentetrachloride","//pt.wikipedia.org/wiki/Tetracloreto_de_sel%C3%AAnio","//ru.wikipedia.org/wiki/%D0%A2%D0%B5%D1%82%D1%80%D0%B0%D1%85%D0%BB%D0%BE%D1%80%D0%B8%D0%B4_%D1%81%D0%B5%D0%BB%D0%B5%D0%BD%D0%B0","//simple.wikipedia.org/wiki/Selenium_tetrachloride","#","//www.wikidata.org/wiki/Q2207705#sitelinks-wikipedia","//en.wikipedia.org/wiki/Wikipedia:Text_of_Creative_Commons_Attribution-ShareAlike_3.0_Unported_License","//creativecommons.org/licenses/by-sa/3.0/","//wikimediafoundation.org/wiki/Terms_of_Use","//wikimediafoundation.org/wiki/Privacy_policy","//www.wikimediafoundation.org/","//wikimediafoundation.org/wiki/Privacy_policy","/wiki/Wikipedia:About","/wiki/Wikipedia:General_disclaimer","//en.wikipedia.org/wiki/Wikipedia:Contact_us","//en.m.wikipedia.org/wiki/Selenium_tetrachloride","//wikimediafoundation.org/","//bits.wikimedia.org/images/wikimedia-button.png","//www.mediawiki.org/","//bits.wikimedia.org/static-1.22wmf11/skins/common/images/poweredby_mediawiki_88x31.png","//bits.wikimedia.org/en.wikipedia.org/load.php?debug=false&lang=en&modules=site&only=scripts&skin=vector&*"],"instances":["phase_transition","disambiguation"],"pdf":[],"categories":["Selenium compounds","Chlorides","Nonmetal halides","Chalcohalides"],"headings":["Synthesis and structure","Reactions","References"],"image":["//upload.wikimedia.org/wikipedia/commons/thumb/2/20/SeCl4-from-alpha-xtal-1981-CM-3D-ellipsoids.png/200px-SeCl4-from-alpha-xtal-1981-CM-3D-ellipsoids.png","//upload.wikimedia.org/wikipedia/commons/thumb/0/09/TeCl4structure.jpg/200px-TeCl4structure.jpg","//upload.wikimedia.org/wikipedia/commons/thumb/a/a2/X_mark.svg/7px-X_mark.svg.png","//upload.wikimedia.org/wikipedia/en/thumb/f/fb/Yes_check.svg/7px-Yes_check.svg.png","//upload.wikimedia.org/wikipedia/en/thumb/f/fb/Yes_check.svg/7px-Yes_check.svg.png","//upload.wikimedia.org/wikipedia/en/thumb/f/fb/Yes_check.svg/7px-Yes_check.svg.png","//upload.wikimedia.org/wikipedia/commons/thumb/6/6f/NFPA_704.svg/75px-NFPA_704.svg.png","//upload.wikimedia.org/wikipedia/commons/thumb/a/a2/X_mark.svg/14px-X_mark.svg.png","//upload.wikimedia.org/wikipedia/en/thumb/f/fb/Yes_check.svg/10px-Yes_check.svg.png","//upload.wikimedia.org/wikipedia/commons/thumb/a/a2/X_mark.svg/10px-X_mark.svg.png","//en.wikipedia.org/w/index.php?title=Special:CentralAutoLogin/start&type=1x1&from=enwiki","//bits.wikimedia.org/static-1.22wmf11/skins/vector/images/search-ltr.png?303-4","//bits.wikimedia.org/images/wikimedia-button.png","//bits.wikimedia.org/static-1.22wmf11/skins/common/images/poweredby_mediawiki_88x31.png"],"tags":[["sublimation","chemistry"],["selenium_chloride","disambiguation"],["sublimation","phase_transition"]],"members":["sublimation","selenium_chloride"],"related":["Sublimation_(chemistry)","Monoclinic","Pearson_symbol","Selenium_tetrafluoride","Selenium_tetrabromide","Selenium_dioxide","Dichlorine_monoxide","Sulfur_tetrachloride","Tellurium_tetrachloride","Inorganic_compound","Chemical_formula","Selenium_chloride_(disambiguation)","Selenium_monochloride","Selenium","Selenium","Chlorine","Sublimation_(phase_transition)","Cubane","VSEPR_theory","Hypervalent_molecule","Seesaw_molecular_geometry","Crystal_structure","Trigonal_pyramidal_molecular_geometry","Triphenylstibine","Selenous_acid","Hydrochloric_acid","Acid","Selenium_dioxide","Selenium_oxychloride"]}