{"cursor":"8579","size":15,"audio":[],"currentlang":"en","article":"{{chembox\n| Verifiedfields = changed verifiedrevid = 458266068\n|Reference= |ImageFile1=Stearic acid.svg |ImageSize1=250px |ImageFile2=Stearic-acid-3D-\nBalls.png |ImageSize2=250px |IUPACName=Octadecanoic acid |OtherNames=C18:0\n(Lipid numbers) |Section1= {{Chembox Identifiers\n| CASNo_Ref = CASNo=57-11-4 PubChem=5281 ChemSpider=5091 ChEMBL_Ref = ChEMBL =\n| 46403 DrugBank_Ref = DrugBank = DB03193 SMILES=CCCCCCCCCCCCCCCCCC(=O)O\n}} |Section2= {{Chembox Properties\n| C=18|H=36|O=2 Appearance= white solid Density=0.847 g/cm 3 at 70 °C\n| MeltingPtC=69.6 BoilingPtC=383 Solubility= 3 mg/L (20 °C)","linknr":340,"url":"Stearic_acid","recorded":1374767464,"links":["/w/index.php?title=Stearic_acid&action=edit","/w/index.php?title=Stearic_acid&action=edit","//bits.wikimedia.org/favicon/wikipedia.ico","/w/opensearch_desc.php","//en.wikipedia.org/w/api.php?action=rsd","//creativecommons.org/licenses/by-sa/3.0/","/w/index.php?title=Special:RecentChanges&feed=atom","//bits.wikimedia.org/en.wikipedia.org/load.php?debug=false&lang=en&modules=ext.gadget.DRN-wizard%2CReferenceTooltips%2Ccharinsert%2Cteahouse%7Cext.rtlcite%2Cwikihiero%7Cext.uls.nojs%7Cmediawiki.legacy.commonPrint%2Cshared%7Cmw.PopUpMediaTransform%7Cskins.vector&only=styles&skin=vector&*","//bits.wikimedia.org/en.wikipedia.org/load.php?debug=false&lang=en&modules=site&only=styles&skin=vector&*","//bits.wikimedia.org/en.wikipedia.org/load.php?debug=false&lang=en&modules=startup&only=scripts&skin=vector&*","//bits.wikimedia.org/geoiplookup","//meta.wikimedia.org","#mw-navigation","#p-search","#cite_note-1","/wiki/File:Stearic_acid.svg","//upload.wikimedia.org/wikipedia/commons/thumb/b/b3/Stearic_acid.svg/250px-Stearic_acid.svg.png","/wiki/File:Stearic-acid-3D-Balls.png","//upload.wikimedia.org/wikipedia/commons/thumb/f/ff/Stearic-acid-3D-Balls.png/250px-Stearic-acid-3D-Balls.png","/wiki/International_Union_of_Pure_and_Applied_Chemistry_nomenclature","/wiki/Fatty_acid#Nomenclature","/wiki/CAS_registry_number","http://www.commonchemistry.org/ChemicalDetail.aspx?ref=57-11-4","//upload.wikimedia.org/wikipedia/en/thumb/f/fb/Yes_check.svg/7px-Yes_check.svg.png","/wiki/PubChem","http://pubchem.ncbi.nlm.nih.gov/summary/summary.cgi?cid=5281","/wiki/DrugBank","http://www.drugbank.ca/drugs/DB03193","/wiki/ChEMBL","https://www.ebi.ac.uk/chembldb/index.php/compound/inspect/CHEMBL46403","//upload.wikimedia.org/wikipedia/commons/thumb/a/a2/X_mark.svg/7px-X_mark.svg.png","/wiki/Jmol","http://chemapps.stolaf.edu/jmol/jmol.php?model=CCCCCCCCCCCCCCCCCC%28%3DO%29O","/wiki/Simplified_molecular-input_line-entry_system","/wiki/Molecular_formula","/wiki/Molar_mass","/wiki/Density","/wiki/Melting_point","/wiki/Boiling_point","/wiki/Solubility","/wiki/Water","/wiki/Refractive_index","/wiki/Specific_heat_capacity","/wiki/NFPA_704","/wiki/File:NFPA_704.svg","//upload.wikimedia.org/wikipedia/commons/thumb/6/6f/NFPA_704.svg/75px-NFPA_704.svg.png","/wiki/Flash_point","//upload.wikimedia.org/wikipedia/commons/thumb/a/a2/X_mark.svg/14px-X_mark.svg.png","//en.wikipedia.org/w/index.php?title=Special:ComparePages&rev1=458266068&page2=Stearic+acid","/wiki/Wikipedia:WikiProject_Chemicals/Chembox_validation","//upload.wikimedia.org/wikipedia/en/thumb/f/fb/Yes_check.svg/10px-Yes_check.svg.png","//upload.wikimedia.org/wikipedia/commons/thumb/a/a2/X_mark.svg/10px-X_mark.svg.png","/wiki/Standard_state","/wiki/Wikipedia:Chemical_infobox#References","/wiki/Wikipedia:Pronunciation_respelling_key","/wiki/Wikipedia:Pronunciation_respelling_key","/wiki/Fatty_acid","/wiki/Greek_language","/wiki/Tallow","/wiki/Ester","/wiki/Palmitic_acid","#cite_note-lipidhb-2","#Production","#Uses","#Soaps.2C_cosmetics.2C_detergents","#Lubricants.2C_softening_and_release_agents","#Niche_uses","#Metabolism","#See_also","#References","#External_links","/w/index.php?title=Stearic_acid&action=edit&section=1","/wiki/Cocoa_butter","/wiki/Shea_butter","/wiki/Triglyceride","#cite_note-lexicon-3","/wiki/Hydrolysis","/wiki/Triglyceride","#cite_note-Ullmann-4","/wiki/Palmitic_acid","/wiki/Fatty_acid_synthesis","/wiki/Acetyl-CoA","/w/index.php?title=Stearic_acid&action=edit&section=2","/wiki/Stearyl_alcohol","/w/index.php?title=Stearic_acid&action=edit&section=3","/wiki/Shampoo","/wiki/Shaving_cream","/wiki/Saponification","/wiki/Ester","/wiki/Ethylene_glycol","/wiki/Glycol_stearate","/wiki/Glycol_distearate","/w/index.php?title=Stearic_acid&action=edit&section=4","/wiki/Lithium_stearate","/wiki/Grease_(lubricant)","/wiki/PVC","/wiki/Release_agent","/w/index.php?title=Stearic_acid&action=edit&section=5","/wiki/Calcium_stearate","/wiki/Zinc","/wiki/Zinc_stearate","/wiki/Fanning_powder","/wiki/Card_manipulation","/wiki/Tableting","/wiki/Candle","/wiki/Sugar","/wiki/Corn_syrup","/wiki/Candies","/wiki/Dietary_supplement","/wiki/Fireworks","/wiki/Metal","/wiki/Aluminium","/wiki/Iron","/wiki/Oxidation","/wiki/Injection_molding","/wiki/Ceramic_forming_techniques","#cite_note-5","/wiki/Foam_latex","/w/index.php?title=Stearic_acid&action=edit&section=6","/wiki/Isotope_labeling","#cite_note-6","/wiki/Redox","/wiki/Oleic_acid","/wiki/Palmitic_acid","/wiki/Palmitoleic_acid","/wiki/Cholesterol_esters","/wiki/LDL","/wiki/Cholesterol","#cite_note-7","/w/index.php?title=Stearic_acid&action=edit&section=7","/wiki/Magnesium_stearate","/wiki/Sodium_stearate","/w/index.php?title=Stearic_acid&action=edit&section=8","#cite_ref-1","/wiki/Merck_Index","/wiki/Rahway,_New_Jersey","/wiki/Merck_%26_Co.","/wiki/International_Standard_Book_Number","/wiki/Special:BookSources/978-0-911910-28-5","#cite_ref-lipidhb_2-0","/wiki/Special:BookSources/0849396883","/wiki/Special:BookSources/9780849396885","#cite_ref-lexicon_3-0","http://iupac.org/publications/pac/73/4/0685/","/wiki/Digital_object_identifier","http://dx.doi.org/10.1351%2Fpac200173040685","#cite_ref-Ullmann_4-0","/wiki/Digital_object_identifier","http://dx.doi.org/10.1002%2F14356007.a10_245.pub2","#cite_ref-5","/wiki/Digital_object_identifier","http://dx.doi.org/10.1016%2FS0272-8842%2898%2900024-8","#cite_ref-6","/wiki/PubMed_Identifier","//www.ncbi.nlm.nih.gov/pubmed/7977144","#cite_ref-7","/wiki/Digital_object_identifier","http://dx.doi.org/10.3945%2Fajcn.2009.27661","/wiki/International_Standard_Serial_Number","//www.worldcat.org/issn/0002-9165","/wiki/PubMed_Identifier","//www.ncbi.nlm.nih.gov/pubmed/19939984","/w/index.php?title=Stearic_acid&action=edit&section=9","http://webbook.nist.gov/cgi/cbook.cgi?Name=stearic+acid&Units=SI","/wiki/Template:Fatty_acids","/wiki/Template_talk:Fatty_acids","//en.wikipedia.org/w/index.php?title=Template:Fatty_acids&action=edit","/wiki/Lipid","/wiki/Fatty_acid","/wiki/Saturated_fat","/wiki/Volatile_fatty_acids","/wiki/Acetic_acid","/wiki/Propionic_acid","/wiki/Butyric_acid","/wiki/Valeric_acid","/wiki/Hexanoic_acid","/wiki/Heptanoic_acid","/wiki/Caprylic_acid","/wiki/Nonanoic_acid","/wiki/Decanoic_acid","/wiki/Undecylic_acid","/wiki/Lauric_acid","/wiki/Tridecylic_acid","/wiki/Myristic_acid","/wiki/Pentadecanoic_acid","/wiki/Palmitic_acid","/wiki/Heptadecanoic_acid","/wiki/Nonadecylic_acid","/wiki/Arachidic_acid","/w/index.php?title=Heneicosylic_acid&action=edit&redlink=1","/wiki/Behenic_acid","/w/index.php?title=Tricosylic_acid&action=edit&redlink=1","/wiki/Lignoceric_acid","/w/index.php?title=Pentacosylic_acid&action=edit&redlink=1","/wiki/Cerotic_acid","/w/index.php?title=Heptacosylic_acid&action=edit&redlink=1","/wiki/Montanic_acid","/w/index.php?title=Nonacosylic_acid&action=edit&redlink=1","/wiki/Melissic_acid","/wiki/Hentriacontylic_acid","/wiki/Lacceroic_acid","/wiki/Psyllic_acid","/wiki/Geddic_acid","/wiki/Ceroplastic_acid","/wiki/Hexatriacontylic_acid","/wiki/Omega-3_fatty_acid","/wiki/Alpha-Linolenic_acid","/wiki/Stearidonic_acid","/wiki/Eicosapentaenoic_acid","/wiki/Docosahexaenoic_acid","/wiki/Omega-6_fatty_acid","/wiki/Linoleic_acid","/wiki/Gamma-Linolenic_acid","/wiki/Dihomo-gamma-linolenic_acid","/wiki/Arachidonic_acid","/wiki/Adrenic_acid","/wiki/Omega-7_fatty_acid","/wiki/Palmitoleic_acid","/wiki/Vaccenic_acid","/wiki/Paullinic_acid","/wiki/Omega-9_fatty_acid","/wiki/Oleic_acid","/wiki/Elaidic_acid","/wiki/Gondoic_acid","/wiki/Erucic_acid","/wiki/Nervonic_acid","/wiki/Mead_acid","/wiki/Biochemistry","/wiki/Template:Metabolism","/wiki/Template:Carbohydrates","/wiki/Template:Alcohols","/wiki/Template:Glycoproteins","/wiki/Template:Glycosides","/wiki/Template:Lipids","/wiki/Template:Eicosanoids","/wiki/Template:Fatty_acids","/wiki/Template:Fatty-acid_metabolism_intermediates","/wiki/Template:Phospholipids","/wiki/Template:Sphingolipids","/wiki/Template:Cholesterol_and_steroid_intermediates","/wiki/Template:Nucleic_acids","/wiki/Template:Nucleobases,_nucleosides,_and_nucleotides","/wiki/Template:Nucleotide_metabolism_intermediates","/wiki/Template:Protein_topics","/wiki/Template:AminoAcids","/wiki/Template:Amino_acid_metabolism_intermediates","/wiki/Template:Tetrapyrroles","/wiki/Template:Heme_metabolism_intermediates","//en.wikipedia.org/w/index.php?title=Special:CentralAutoLogin/start&type=1x1&from=enwiki","http://en.wikipedia.org/w/index.php?title=Stearic_acid&oldid=565501349","/wiki/Help:Categories","/wiki/Category:Fatty_acids","/wiki/Category:Stearates","/wiki/Category:Chemical_pages_needing_a_ChemSpiderID","/wiki/Category:Articles_with_changed_EBI_identifier","/wiki/Category:Chemboxes_which_contain_changes_to_verified_fields","/w/index.php?title=Special:UserLogin&returnto=Stearic+acid&type=signup","/w/index.php?title=Special:UserLogin&returnto=Stearic+acid","/wiki/Stearic_acid","/wiki/Talk:Stearic_acid","#","/wiki/Stearic_acid","/w/index.php?title=Stearic_acid&action=edit","/w/index.php?title=Stearic_acid&action=history","#","/w/index.php","//bits.wikimedia.org/static-1.22wmf10/skins/vector/images/search-ltr.png?303-4","/wiki/Main_Page","/wiki/Main_Page","/wiki/Portal:Contents","/wiki/Portal:Featured_content","/wiki/Portal:Current_events","/wiki/Special:Random","//donate.wikimedia.org/wiki/Special:FundraiserRedirector?utm_source=donate&utm_medium=sidebar&utm_campaign=C13_en.wikipedia.org&uselang=en","/wiki/Help:Contents","/wiki/Wikipedia:About","/wiki/Wikipedia:Community_portal","/wiki/Special:RecentChanges","//en.wikipedia.org/wiki/Wikipedia:Contact_us","/wiki/Special:WhatLinksHere/Stearic_acid","/wiki/Special:RecentChangesLinked/Stearic_acid","/wiki/Wikipedia:File_Upload_Wizard","/wiki/Special:SpecialPages","/w/index.php?title=Stearic_acid&oldid=565501349","/w/index.php?title=Stearic_acid&action=info","//www.wikidata.org/wiki/Q209685","/w/index.php?title=Special:Cite&page=Stearic_acid&id=565501349","/w/index.php?title=Special:Book&bookcmd=book_creator&referer=Stearic+acid","/w/index.php?title=Special:Book&bookcmd=render_article&arttitle=Stearic+acid&oldid=565501349&writer=rl","/w/index.php?title=Stearic_acid&printable=yes","//ar.wikipedia.org/wiki/%D8%AD%D9%85%D8%B6_%D8%A7%D9%84%D8%B4%D9%85%D8%B9","//be.wikipedia.org/wiki/%D0%A1%D1%82%D1%8D%D0%B0%D1%80%D1%8B%D0%BD%D0%B0%D0%B2%D0%B0%D1%8F_%D0%BA%D1%96%D1%81%D0%BB%D0%B0%D1%82%D0%B0","//bg.wikipedia.org/wiki/%D0%A1%D1%82%D0%B5%D0%B0%D1%80%D0%B8%D0%BD%D0%BE%D0%B2%D0%B0_%D0%BA%D0%B8%D1%81%D0%B5%D0%BB%D0%B8%D0%BD%D0%B0","//ca.wikipedia.org/wiki/%C3%80cid_este%C3%A0ric","//cs.wikipedia.org/wiki/Kyselina_stearov%C3%A1","//de.wikipedia.org/wiki/Stearins%C3%A4ure","//el.wikipedia.org/wiki/%CE%A3%CF%84%CE%B5%CE%B1%CF%84%CE%B9%CE%BA%CF%8C_%CE%BF%CE%BE%CF%8D","//es.wikipedia.org/wiki/%C3%81cido_este%C3%A1rico","//eo.wikipedia.org/wiki/Steara_acido","//fa.wikipedia.org/wiki/%D8%A7%D8%B3%DB%8C%D8%AF_%D8%A7%D8%B3%D8%AA%D8%A7%D8%B1%DB%8C%DA%A9","//fr.wikipedia.org/wiki/Acide_st%C3%A9arique","//ga.wikipedia.org/wiki/Aig%C3%A9ad_st%C3%A9arach","//gl.wikipedia.org/wiki/%C3%81cido_este%C3%A1rico","//ko.wikipedia.org/wiki/%EC%8A%A4%ED%85%8C%EC%95%84%EB%A5%B4%EC%82%B0","//hr.wikipedia.org/wiki/Stearinska_kiselina","//id.wikipedia.org/wiki/Asam_stearat","//it.wikipedia.org/wiki/Acido_stearico","//he.wikipedia.org/wiki/%D7%97%D7%95%D7%9E%D7%A6%D7%94_%D7%A1%D7%98%D7%90%D7%A8%D7%99%D7%AA","//lv.wikipedia.org/wiki/Stear%C4%ABnsk%C4%81be","//hu.wikipedia.org/wiki/Sztearinsav","//mk.wikipedia.org/wiki/%D0%A1%D1%82%D0%B5%D0%B0%D1%80%D0%B8%D0%BD%D1%81%D0%BA%D0%B0_%D0%BA%D0%B8%D1%81%D0%B5%D0%BB%D0%B8%D0%BD%D0%B0","//nl.wikipedia.org/wiki/Stearinezuur","//ja.wikipedia.org/wiki/%E3%82%B9%E3%83%86%E3%82%A2%E3%83%AA%E3%83%B3%E9%85%B8","//pl.wikipedia.org/wiki/Kwas_stearynowy","//pt.wikipedia.org/wiki/%C3%81cido_este%C3%A1rico","//ru.wikipedia.org/wiki/%D0%A1%D1%82%D0%B5%D0%B0%D1%80%D0%B8%D0%BD%D0%BE%D0%B2%D0%B0%D1%8F_%D0%BA%D0%B8%D1%81%D0%BB%D0%BE%D1%82%D0%B0","//sr.wikipedia.org/wiki/Stearinska_kiselina","//fi.wikipedia.org/wiki/Steariinihappo","//sv.wikipedia.org/wiki/Stearinsyra","//te.wikipedia.org/wiki/%E0%B0%B8%E0%B1%8D%E0%B0%9F%E0%B0%BF%E0%B0%AF%E0%B0%B0%E0%B0%BF%E0%B0%95%E0%B1%8D_%E0%B0%86%E0%B0%AE%E0%B1%8D%E0%B0%B2%E0%B0%82","//tr.wikipedia.org/wiki/Stearik_asit","//uk.wikipedia.org/wiki/%D0%A1%D1%82%D0%B5%D0%B0%D1%80%D0%B8%D0%BD%D0%BE%D0%B2%D0%B0_%D0%BA%D0%B8%D1%81%D0%BB%D0%BE%D1%82%D0%B0","//vi.wikipedia.org/wiki/Axit_stearic","//zh.wikipedia.org/wiki/%E7%A1%AC%E8%84%82%E9%85%B8","#","//www.wikidata.org/wiki/Q209685#sitelinks-wikipedia","//en.wikipedia.org/wiki/Wikipedia:Text_of_Creative_Commons_Attribution-ShareAlike_3.0_Unported_License","//creativecommons.org/licenses/by-sa/3.0/","//wikimediafoundation.org/wiki/Terms_of_Use","//wikimediafoundation.org/wiki/Privacy_policy","//www.wikimediafoundation.org/","//wikimediafoundation.org/wiki/Privacy_policy","/wiki/Wikipedia:About","/wiki/Wikipedia:General_disclaimer","//en.wikipedia.org/wiki/Wikipedia:Contact_us","//en.m.wikipedia.org/wiki/Stearic_acid","//wikimediafoundation.org/","//bits.wikimedia.org/images/wikimedia-button.png","//www.mediawiki.org/","//bits.wikimedia.org/static-1.22wmf10/skins/common/images/poweredby_mediawiki_88x31.png","//bits.wikimedia.org/en.wikipedia.org/load.php?debug=false&lang=en&modules=site&only=scripts&skin=vector&*"],"instances":["lubricant"],"pdf":[],"categories":["Fatty acids","Stearates"],"headings":["Production","Uses","Metabolism","See also","References","External links"],"image":["//upload.wikimedia.org/wikipedia/commons/thumb/b/b3/Stearic_acid.svg/250px-Stearic_acid.svg.png","//upload.wikimedia.org/wikipedia/commons/thumb/f/ff/Stearic-acid-3D-Balls.png/250px-Stearic-acid-3D-Balls.png","//upload.wikimedia.org/wikipedia/en/thumb/f/fb/Yes_check.svg/7px-Yes_check.svg.png","//upload.wikimedia.org/wikipedia/commons/thumb/a/a2/X_mark.svg/7px-X_mark.svg.png","//upload.wikimedia.org/wikipedia/commons/thumb/6/6f/NFPA_704.svg/75px-NFPA_704.svg.png","//upload.wikimedia.org/wikipedia/commons/thumb/a/a2/X_mark.svg/14px-X_mark.svg.png","//upload.wikimedia.org/wikipedia/en/thumb/f/fb/Yes_check.svg/10px-Yes_check.svg.png","//upload.wikimedia.org/wikipedia/commons/thumb/a/a2/X_mark.svg/10px-X_mark.svg.png","//en.wikipedia.org/w/index.php?title=Special:CentralAutoLogin/start&type=1x1&from=enwiki","//bits.wikimedia.org/static-1.22wmf10/skins/vector/images/search-ltr.png?303-4","//bits.wikimedia.org/images/wikimedia-button.png","//bits.wikimedia.org/static-1.22wmf10/skins/common/images/poweredby_mediawiki_88x31.png"],"tags":[["grease","lubricant"]],"members":["grease"],"related":["Fatty_acid","Greek_language","Tallow","Ester","Palmitic_acid","Cocoa_butter","Shea_butter","Triglyceride","Hydrolysis","Triglyceride","Palmitic_acid","Fatty_acid_synthesis","Acetyl-CoA","Stearyl_alcohol","Shampoo","Shaving_cream","Saponification","Ester","Ethylene_glycol","Glycol_stearate","Glycol_distearate","Lithium_stearate","Grease_(lubricant)","PVC","Release_agent","Calcium_stearate","Zinc","Zinc_stearate","Fanning_powder","Card_manipulation","Tableting","Candle","Sugar","Corn_syrup","Candies","Dietary_supplement","Fireworks","Metal","Aluminium","Iron","Oxidation","Injection_molding","Ceramic_forming_techniques","Foam_latex","Isotope_labeling","Redox","Oleic_acid","Palmitic_acid","Palmitoleic_acid","Cholesterol_esters","LDL","Cholesterol","Magnesium_stearate","Sodium_stearate"]}